  90  90   0   0
  0.2724484E+02  0.1159820E-08  0.1159820E-08  0.2104820E-08  0.5000000E-15
  1.000000000000000E-004
  CAR 
 unknown system                          
      3.25173104    -36.79999974  301     -1.00376536      1.00000000
    -36.800  0.0000E+00  0.0000E+00  0.0000E+00  0.0000E+00
    -36.666  0.0000E+00  0.0000E+00  0.0000E+00  0.0000E+00
    -36.533  0.0000E+00  0.0000E+00  0.0000E+00  0.0000E+00
    -36.399  0.0000E+00  0.0000E+00  0.0000E+00  0.0000E+00
    -36.266  0.0000E+00  0.0000E+00  0.0000E+00  0.0000E+00
    -36.132  0.0000E+00  0.0000E+00  0.0000E+00  0.0000E+00
    -35.999  0.0000E+00  0.0000E+00  0.0000E+00  0.0000E+00
    -35.865  0.0000E+00  0.0000E+00  0.0000E+00  0.0000E+00
    -35.732  0.0000E+00  0.0000E+00  0.0000E+00  0.0000E+00
    -35.598  0.0000E+00  0.0000E+00  0.0000E+00  0.0000E+00
    -35.465  0.0000E+00  0.0000E+00  0.0000E+00  0.0000E+00
    -35.331  0.0000E+00  0.0000E+00  0.0000E+00  0.0000E+00
    -35.198  0.6573E-12  0.1255E-11  0.8776E-13  0.1676E-12
    -35.064  0.4932E-04  0.6681E-04  0.6585E-05  0.8920E-05
    -34.931  0.4213E-01  0.4762E-01  0.5632E-02  0.6367E-02
    -34.797  0.4365E+00  0.4758E+00  0.6390E-01  0.6989E-01
    -34.664  0.1954E+00  0.1506E+00  0.8999E-01  0.9000E-01
    -34.530  0.9628E-04  0.1730E-04  0.9000E-01  0.9000E-01
    -34.397  0.2774E-12  0.3784E-14  0.9000E-01  0.9000E-01
    -34.263  0.0000E+00  0.0000E+00  0.9000E-01  0.9000E-01
    -34.130  0.0000E+00  0.0000E+00  0.9000E-01  0.9000E-01
    -33.996  0.0000E+00  0.0000E+00  0.9000E-01  0.9000E-01
    -33.863  0.0000E+00  0.0000E+00  0.9000E-01  0.9000E-01
    -33.729  0.0000E+00  0.0000E+00  0.9000E-01  0.9000E-01
    -33.596  0.0000E+00  0.0000E+00  0.9000E-01  0.9000E-01
    -33.462  0.0000E+00  0.0000E+00  0.9000E-01  0.9000E-01
    -33.329  0.0000E+00  0.0000E+00  0.9000E-01  0.9000E-01
    -33.195  0.0000E+00  0.0000E+00  0.9000E-01  0.9000E-01
    -33.062  0.0000E+00  0.0000E+00  0.9000E-01  0.9000E-01
    -32.928  0.0000E+00  0.0000E+00  0.9000E-01  0.9000E-01
    -32.795  0.0000E+00  0.0000E+00  0.9000E-01  0.9000E-01
    -32.661  0.0000E+00  0.0000E+00  0.9000E-01  0.9000E-01
    -32.528  0.0000E+00  0.0000E+00  0.9000E-01  0.9000E-01
    -32.394  0.0000E+00  0.0000E+00  0.9000E-01  0.9000E-01
    -32.261  0.0000E+00  0.0000E+00  0.9000E-01  0.9000E-01
    -32.127  0.0000E+00  0.0000E+00  0.9000E-01  0.9000E-01
    -31.994  0.0000E+00  0.0000E+00  0.9000E-01  0.9000E-01
    -31.860  0.0000E+00  0.0000E+00  0.9000E-01  0.9000E-01
    -31.727  0.0000E+00  0.0000E+00  0.9000E-01  0.9000E-01
    -31.593  0.0000E+00  0.0000E+00  0.9000E-01  0.9000E-01
    -31.460  0.0000E+00  0.0000E+00  0.9000E-01  0.9000E-01
    -31.326  0.0000E+00  0.0000E+00  0.9000E-01  0.9000E-01
    -31.193  0.0000E+00  0.0000E+00  0.9000E-01  0.9000E-01
    -31.059  0.0000E+00  0.0000E+00  0.9000E-01  0.9000E-01
    -30.926  0.0000E+00  0.0000E+00  0.9000E-01  0.9000E-01
    -30.792  0.0000E+00  0.0000E+00  0.9000E-01  0.9000E-01
    -30.659  0.0000E+00  0.0000E+00  0.9000E-01  0.9000E-01
    -30.525  0.0000E+00  0.0000E+00  0.9000E-01  0.9000E-01
    -30.392  0.0000E+00  0.0000E+00  0.9000E-01  0.9000E-01
    -30.258  0.0000E+00  0.0000E+00  0.9000E-01  0.9000E-01
    -30.125  0.0000E+00  0.0000E+00  0.9000E-01  0.9000E-01
    -29.991  0.0000E+00  0.0000E+00  0.9000E-01  0.9000E-01
    -29.858  0.0000E+00  0.0000E+00  0.9000E-01  0.9000E-01
    -29.724  0.0000E+00  0.0000E+00  0.9000E-01  0.9000E-01
    -29.591  0.0000E+00  0.0000E+00  0.9000E-01  0.9000E-01
    -29.457  0.0000E+00  0.0000E+00  0.9000E-01  0.9000E-01
    -29.324  0.0000E+00  0.0000E+00  0.9000E-01  0.9000E-01
    -29.190  0.0000E+00  0.0000E+00  0.9000E-01  0.9000E-01
    -29.057  0.0000E+00  0.0000E+00  0.9000E-01  0.9000E-01
    -28.923  0.0000E+00  0.0000E+00  0.9000E-01  0.9000E-01
    -28.790  0.0000E+00  0.0000E+00  0.9000E-01  0.9000E-01
    -28.656  0.0000E+00  0.0000E+00  0.9000E-01  0.9000E-01
    -28.523  0.0000E+00  0.0000E+00  0.9000E-01  0.9000E-01
    -28.389  0.0000E+00  0.0000E+00  0.9000E-01  0.9000E-01
    -28.256  0.0000E+00  0.0000E+00  0.9000E-01  0.9000E-01
    -28.122  0.0000E+00  0.0000E+00  0.9000E-01  0.9000E-01
    -27.989  0.0000E+00  0.0000E+00  0.9000E-01  0.9000E-01
    -27.855  0.0000E+00  0.0000E+00  0.9000E-01  0.9000E-01
    -27.722  0.0000E+00  0.0000E+00  0.9000E-01  0.9000E-01
    -27.588  0.0000E+00  0.0000E+00  0.9000E-01  0.9000E-01
    -27.455  0.0000E+00  0.0000E+00  0.9000E-01  0.9000E-01
    -27.321  0.0000E+00  0.0000E+00  0.9000E-01  0.9000E-01
    -27.188  0.0000E+00  0.0000E+00  0.9000E-01  0.9000E-01
    -27.054  0.0000E+00  0.0000E+00  0.9000E-01  0.9000E-01
    -26.921  0.0000E+00  0.0000E+00  0.9000E-01  0.9000E-01
    -26.787  0.0000E+00  0.0000E+00  0.9000E-01  0.9000E-01
    -26.654  0.0000E+00  0.0000E+00  0.9000E-01  0.9000E-01
    -26.520  0.0000E+00  0.0000E+00  0.9000E-01  0.9000E-01
    -26.387  0.0000E+00  0.0000E+00  0.9000E-01  0.9000E-01
    -26.253  0.0000E+00  0.0000E+00  0.9000E-01  0.9000E-01
    -26.120  0.0000E+00  0.0000E+00  0.9000E-01  0.9000E-01
    -25.986  0.0000E+00  0.0000E+00  0.9000E-01  0.9000E-01
    -25.853  0.0000E+00  0.0000E+00  0.9000E-01  0.9000E-01
    -25.719  0.0000E+00  0.0000E+00  0.9000E-01  0.9000E-01
    -25.586  0.0000E+00  0.0000E+00  0.9000E-01  0.9000E-01
    -25.452  0.0000E+00  0.0000E+00  0.9000E-01  0.9000E-01
    -25.319  0.0000E+00  0.0000E+00  0.9000E-01  0.9000E-01
    -25.185  0.0000E+00  0.0000E+00  0.9000E-01  0.9000E-01
    -25.051  0.0000E+00  0.0000E+00  0.9000E-01  0.9000E-01
    -24.918  0.0000E+00  0.0000E+00  0.9000E-01  0.9000E-01
    -24.784  0.0000E+00  0.0000E+00  0.9000E-01  0.9000E-01
    -24.651  0.0000E+00  0.0000E+00  0.9000E-01  0.9000E-01
    -24.517  0.0000E+00  0.0000E+00  0.9000E-01  0.9000E-01
    -24.384  0.0000E+00  0.0000E+00  0.9000E-01  0.9000E-01
    -24.250  0.0000E+00  0.0000E+00  0.9000E-01  0.9000E-01
    -24.117  0.0000E+00  0.0000E+00  0.9000E-01  0.9000E-01
    -23.983  0.0000E+00  0.0000E+00  0.9000E-01  0.9000E-01
    -23.850  0.0000E+00  0.0000E+00  0.9000E-01  0.9000E-01
    -23.716  0.0000E+00  0.0000E+00  0.9000E-01  0.9000E-01
    -23.583  0.0000E+00  0.0000E+00  0.9000E-01  0.9000E-01
    -23.449  0.0000E+00  0.0000E+00  0.9000E-01  0.9000E-01
    -23.316  0.0000E+00  0.0000E+00  0.9000E-01  0.9000E-01
    -23.182  0.0000E+00  0.0000E+00  0.9000E-01  0.9000E-01
    -23.049  0.0000E+00  0.0000E+00  0.9000E-01  0.9000E-01
    -22.915  0.0000E+00  0.0000E+00  0.9000E-01  0.9000E-01
    -22.782  0.0000E+00  0.0000E+00  0.9000E-01  0.9000E-01
    -22.648  0.0000E+00  0.0000E+00  0.9000E-01  0.9000E-01
    -22.515  0.0000E+00  0.0000E+00  0.9000E-01  0.9000E-01
    -22.381  0.0000E+00  0.0000E+00  0.9000E-01  0.9000E-01
    -22.248  0.0000E+00  0.0000E+00  0.9000E-01  0.9000E-01
    -22.114  0.0000E+00  0.0000E+00  0.9000E-01  0.9000E-01
    -21.981  0.0000E+00  0.0000E+00  0.9000E-01  0.9000E-01
    -21.847  0.0000E+00  0.0000E+00  0.9000E-01  0.9000E-01
    -21.714  0.0000E+00  0.0000E+00  0.9000E-01  0.9000E-01
    -21.580  0.0000E+00  0.0000E+00  0.9000E-01  0.9000E-01
    -21.447  0.0000E+00  0.0000E+00  0.9000E-01  0.9000E-01
    -21.313  0.0000E+00  0.0000E+00  0.9000E-01  0.9000E-01
    -21.180  0.0000E+00  0.0000E+00  0.9000E-01  0.9000E-01
    -21.046  0.0000E+00  0.0000E+00  0.9000E-01  0.9000E-01
    -20.913  0.0000E+00  0.0000E+00  0.9000E-01  0.9000E-01
    -20.779  0.0000E+00  0.0000E+00  0.9000E-01  0.9000E-01
    -20.646  0.0000E+00  0.0000E+00  0.9000E-01  0.9000E-01
    -20.512  0.0000E+00  0.0000E+00  0.9000E-01  0.9000E-01
    -20.379  0.2382E-09  0.1632E-13  0.9000E-01  0.9000E-01
    -20.245  0.6526E-03  0.9294E-05  0.9009E-01  0.9000E-01
    -20.112  0.2886E-01  0.1553E-01  0.9394E-01  0.9207E-01
    -19.978  0.5368E-01  0.3587E-01  0.1011E+00  0.9686E-01
    -19.845  0.1142E+00  0.7995E-01  0.1164E+00  0.1075E+00
    -19.711  0.1744E+00  0.1739E+00  0.1396E+00  0.1308E+00
    -19.578  0.1191E+00  0.1154E+00  0.1555E+00  0.1462E+00
    -19.444  0.1099E+00  0.9689E-01  0.1702E+00  0.1591E+00
    -19.311  0.1327E+00  0.3820E-01  0.1879E+00  0.1642E+00
    -19.177  0.6913E-01  0.5416E-01  0.1972E+00  0.1714E+00
    -19.044  0.2769E-01  0.6573E-01  0.2009E+00  0.1802E+00
    -18.910  0.8009E-01  0.4485E-01  0.2116E+00  0.1862E+00
    -18.777  0.4398E-01  0.8279E-01  0.2174E+00  0.1973E+00
    -18.643  0.1045E+00  0.7441E-01  0.2314E+00  0.2072E+00
    -18.510  0.8164E-01  0.5993E-01  0.2423E+00  0.2152E+00
    -18.376  0.5235E-01  0.2271E-01  0.2493E+00  0.2182E+00
    -18.243  0.5155E-01  0.4982E-01  0.2561E+00  0.2249E+00
    -18.109  0.2565E-01  0.1046E+00  0.2596E+00  0.2388E+00
    -17.976  0.9825E-01  0.8477E-01  0.2727E+00  0.2502E+00
    -17.842  0.4691E-01  0.4515E-01  0.2790E+00  0.2562E+00
    -17.709  0.5249E-01  0.9287E-01  0.2860E+00  0.2686E+00
    -17.575  0.1362E-01  0.4570E-01  0.2878E+00  0.2747E+00
    -17.442  0.6197E-01  0.1134E+00  0.2961E+00  0.2898E+00
    -17.308  0.2653E+00  0.2570E+00  0.3315E+00  0.3241E+00
    -17.175  0.1834E+00  0.1885E+00  0.3560E+00  0.3493E+00
    -17.041  0.1178E+00  0.9090E-01  0.3717E+00  0.3614E+00
    -16.908  0.1545E+00  0.3286E-01  0.3923E+00  0.3658E+00
    -16.774  0.4088E-01  0.1595E-01  0.3978E+00  0.3680E+00
    -16.641  0.1169E-01  0.3720E-01  0.3993E+00  0.3729E+00
    -16.507  0.7801E-01  0.4220E-01  0.4097E+00  0.3786E+00
    -16.374  0.8312E-01  0.9977E-01  0.4208E+00  0.3919E+00
    -16.240  0.1853E-01  0.9157E-01  0.4233E+00  0.4041E+00
    -16.107  0.7815E-01  0.4960E-01  0.4338E+00  0.4107E+00
    -15.973  0.7272E-01  0.3298E-01  0.4435E+00  0.4151E+00
    -15.840  0.7242E-01  0.9624E-01  0.4531E+00  0.4280E+00
    -15.706  0.2983E-01  0.1105E+00  0.4571E+00  0.4427E+00
    -15.573  0.7750E-01  0.5757E-01  0.4675E+00  0.4504E+00
    -15.439  0.3477E-01  0.1962E-01  0.4721E+00  0.4530E+00
    -15.306  0.1057E+00  0.1301E+00  0.4862E+00  0.4704E+00
    -15.172  0.4498E-01  0.8953E-01  0.4922E+00  0.4824E+00
    -15.039  0.4305E-01  0.6774E-01  0.4980E+00  0.4914E+00
    -14.905  0.4669E-01  0.5603E-01  0.5042E+00  0.4989E+00
    -14.772  0.8385E-01  0.4940E-01  0.5154E+00  0.5055E+00
    -14.638  0.1329E+00  0.1125E+00  0.5331E+00  0.5205E+00
    -14.505  0.9414E-01  0.1380E+00  0.5457E+00  0.5389E+00
    -14.371  0.5443E-01  0.8135E-01  0.5530E+00  0.5498E+00
    -14.238  0.5728E-01  0.5663E-01  0.5606E+00  0.5573E+00
    -14.104  0.3595E-01  0.5527E-01  0.5654E+00  0.5647E+00
    -13.971  0.1519E-01  0.1366E-01  0.5674E+00  0.5665E+00
    -13.837  0.1891E-01  0.2425E-01  0.5700E+00  0.5698E+00
    -13.704  0.2004E-03  0.1732E-02  0.5700E+00  0.5700E+00
    -13.570  0.1347E-10  0.3960E-08  0.5700E+00  0.5700E+00
    -13.436  0.0000E+00  0.0000E+00  0.5700E+00  0.5700E+00
    -13.303  0.0000E+00  0.0000E+00  0.5700E+00  0.5700E+00
    -13.169  0.0000E+00  0.0000E+00  0.5700E+00  0.5700E+00
    -13.036  0.0000E+00  0.0000E+00  0.5700E+00  0.5700E+00
    -12.902  0.0000E+00  0.0000E+00  0.5700E+00  0.5700E+00
    -12.769  0.0000E+00  0.0000E+00  0.5700E+00  0.5700E+00
    -12.635  0.0000E+00  0.0000E+00  0.5700E+00  0.5700E+00
    -12.502  0.0000E+00  0.0000E+00  0.5700E+00  0.5700E+00
    -12.368  0.0000E+00  0.0000E+00  0.5700E+00  0.5700E+00
    -12.235  0.0000E+00  0.0000E+00  0.5700E+00  0.5700E+00
    -12.101  0.0000E+00  0.0000E+00  0.5700E+00  0.5700E+00
    -11.968  0.0000E+00  0.0000E+00  0.5700E+00  0.5700E+00
    -11.834  0.0000E+00  0.0000E+00  0.5700E+00  0.5700E+00
    -11.701  0.0000E+00  0.0000E+00  0.5700E+00  0.5700E+00
    -11.567  0.0000E+00  0.0000E+00  0.5700E+00  0.5700E+00
    -11.434  0.0000E+00  0.0000E+00  0.5700E+00  0.5700E+00
    -11.300  0.0000E+00  0.0000E+00  0.5700E+00  0.5700E+00
    -11.167  0.0000E+00  0.0000E+00  0.5700E+00  0.5700E+00
    -11.033  0.0000E+00  0.0000E+00  0.5700E+00  0.5700E+00
    -10.900  0.0000E+00  0.0000E+00  0.5700E+00  0.5700E+00
    -10.766  0.0000E+00  0.0000E+00  0.5700E+00  0.5700E+00
    -10.633  0.0000E+00  0.0000E+00  0.5700E+00  0.5700E+00
    -10.499  0.0000E+00  0.0000E+00  0.5700E+00  0.5700E+00
    -10.366  0.0000E+00  0.0000E+00  0.5700E+00  0.5700E+00
    -10.232  0.0000E+00  0.0000E+00  0.5700E+00  0.5700E+00
    -10.099  0.0000E+00  0.0000E+00  0.5700E+00  0.5700E+00
     -9.965  0.0000E+00  0.0000E+00  0.5700E+00  0.5700E+00
     -9.832  0.0000E+00  0.0000E+00  0.5700E+00  0.5700E+00
     -9.698  0.0000E+00  0.0000E+00  0.5700E+00  0.5700E+00
     -9.565  0.0000E+00  0.0000E+00  0.5700E+00  0.5700E+00
     -9.431  0.0000E+00  0.0000E+00  0.5700E+00  0.5700E+00
     -9.298  0.0000E+00  0.0000E+00  0.5700E+00  0.5700E+00
     -9.164  0.0000E+00  0.0000E+00  0.5700E+00  0.5700E+00
     -9.031  0.0000E+00  0.0000E+00  0.5700E+00  0.5700E+00
     -8.897  0.0000E+00  0.0000E+00  0.5700E+00  0.5700E+00
     -8.764  0.0000E+00  0.0000E+00  0.5700E+00  0.5700E+00
     -8.630  0.0000E+00  0.0000E+00  0.5700E+00  0.5700E+00
     -8.497  0.0000E+00  0.0000E+00  0.5700E+00  0.5700E+00
     -8.363  0.0000E+00  0.0000E+00  0.5700E+00  0.5700E+00
     -8.230  0.0000E+00  0.0000E+00  0.5700E+00  0.5700E+00
     -8.096  0.0000E+00  0.0000E+00  0.5700E+00  0.5700E+00
     -7.963  0.0000E+00  0.0000E+00  0.5700E+00  0.5700E+00
     -7.829  0.0000E+00  0.0000E+00  0.5700E+00  0.5700E+00
     -7.696  0.0000E+00  0.0000E+00  0.5700E+00  0.5700E+00
     -7.562  0.0000E+00  0.0000E+00  0.5700E+00  0.5700E+00
     -7.429  0.0000E+00  0.0000E+00  0.5700E+00  0.5700E+00
     -7.295  0.0000E+00  0.0000E+00  0.5700E+00  0.5700E+00
     -7.162  0.0000E+00  0.0000E+00  0.5700E+00  0.5700E+00
     -7.028  0.0000E+00  0.0000E+00  0.5700E+00  0.5700E+00
     -6.895  0.0000E+00  0.0000E+00  0.5700E+00  0.5700E+00
     -6.761  0.0000E+00  0.0000E+00  0.5700E+00  0.5700E+00
     -6.628  0.0000E+00  0.0000E+00  0.5700E+00  0.5700E+00
     -6.494  0.0000E+00  0.0000E+00  0.5700E+00  0.5700E+00
     -6.361  0.0000E+00  0.0000E+00  0.5700E+00  0.5700E+00
     -6.227  0.0000E+00  0.0000E+00  0.5700E+00  0.5700E+00
     -6.094  0.0000E+00  0.0000E+00  0.5700E+00  0.5700E+00
     -5.960  0.0000E+00  0.0000E+00  0.5700E+00  0.5700E+00
     -5.827  0.0000E+00  0.0000E+00  0.5700E+00  0.5700E+00
     -5.693  0.0000E+00  0.0000E+00  0.5700E+00  0.5700E+00
     -5.560  0.0000E+00  0.0000E+00  0.5700E+00  0.5700E+00
     -5.426  0.9240E-18  0.0000E+00  0.5700E+00  0.5700E+00
     -5.293  0.4362E-07  0.1571E-16  0.5700E+00  0.5700E+00
     -5.159  0.3903E-02  0.1516E-06  0.5705E+00  0.5700E+00
     -5.026  0.3479E-01  0.2354E-02  0.5752E+00  0.5703E+00
     -4.892  0.5182E-01  0.3165E-01  0.5821E+00  0.5745E+00
     -4.759  0.1000E+00  0.4156E-01  0.5954E+00  0.5801E+00
     -4.625  0.1416E+00  0.7495E-01  0.6143E+00  0.5901E+00
     -4.492  0.1987E+00  0.7204E-01  0.6409E+00  0.5997E+00
     -4.358  0.1796E+00  0.9981E-01  0.6649E+00  0.6130E+00
     -4.225  0.1256E+00  0.1346E+00  0.6816E+00  0.6310E+00
     -4.091  0.1846E+00  0.2008E+00  0.7063E+00  0.6578E+00
     -3.958  0.2038E+00  0.1762E+00  0.7335E+00  0.6813E+00
     -3.824  0.2020E+00  0.1595E+00  0.7604E+00  0.7026E+00
     -3.691  0.1284E+00  0.8762E-01  0.7776E+00  0.7143E+00
     -3.557  0.1725E+00  0.1231E+00  0.8006E+00  0.7308E+00
     -3.424  0.1381E+00  0.1572E+00  0.8190E+00  0.7517E+00
     -3.290  0.1891E+00  0.1171E+00  0.8443E+00  0.7674E+00
     -3.157  0.1454E+00  0.1933E+00  0.8637E+00  0.7932E+00
     -3.023  0.1347E+00  0.1000E+00  0.8817E+00  0.8065E+00
     -2.890  0.1384E+00  0.1238E+00  0.9002E+00  0.8231E+00
     -2.756  0.1098E+00  0.9667E-01  0.9148E+00  0.8360E+00
     -2.623  0.1901E+00  0.1441E+00  0.9402E+00  0.8552E+00
     -2.489  0.1765E+00  0.1845E+00  0.9637E+00  0.8798E+00
     -2.356  0.1721E+00  0.1988E+00  0.9867E+00  0.9064E+00
     -2.222  0.2147E+00  0.2019E+00  0.1015E+01  0.9333E+00
     -2.088  0.2507E+00  0.2313E+00  0.1049E+01  0.9642E+00
     -1.955  0.2147E+00  0.2516E+00  0.1078E+01  0.9978E+00
     -1.821  0.3217E+00  0.2582E+00  0.1120E+01  0.1032E+01
     -1.688  0.1789E+00  0.2494E+00  0.1144E+01  0.1066E+01
     -1.554  0.1730E+00  0.2221E+00  0.1167E+01  0.1095E+01
     -1.421  0.1018E+00  0.1739E+00  0.1181E+01  0.1118E+01
     -1.287  0.1406E+00  0.1585E+00  0.1200E+01  0.1140E+01
     -1.154  0.1440E-02  0.2879E-02  0.1200E+01  0.1140E+01
     -1.020  0.2147E-09  0.1175E-08  0.1200E+01  0.1140E+01
     -0.887  0.0000E+00  0.1723E-04  0.1200E+01  0.1140E+01
     -0.753  0.0000E+00  0.4398E-01  0.1200E+01  0.1146E+01
     -0.620  0.0000E+00  0.2192E+00  0.1200E+01  0.1175E+01
     -0.486  0.0000E+00  0.1419E+00  0.1200E+01  0.1194E+01
     -0.353  0.0000E+00  0.4435E-01  0.1200E+01  0.1200E+01
     -0.219  0.0000E+00  0.1064E-04  0.1200E+01  0.1200E+01
     -0.086  0.0000E+00  0.7227E-14  0.1200E+01  0.1200E+01
      0.048  0.0000E+00  0.0000E+00  0.1200E+01  0.1200E+01
      0.181  0.0000E+00  0.0000E+00  0.1200E+01  0.1200E+01
      0.315  0.0000E+00  0.0000E+00  0.1200E+01  0.1200E+01
      0.448  0.0000E+00  0.0000E+00  0.1200E+01  0.1200E+01
      0.582  0.0000E+00  0.0000E+00  0.1200E+01  0.1200E+01
      0.715  0.5977E-11  0.6681E-11  0.1200E+01  0.1200E+01
      0.849  0.2133E-03  0.2321E-03  0.1200E+01  0.1200E+01
      0.982  0.7431E-01  0.8689E-01  0.1210E+01  0.1212E+01
      1.116  0.4233E+00  0.4661E+00  0.1266E+01  0.1274E+01
      1.249  0.1036E+01  0.1071E+01  0.1405E+01  0.1417E+01
      1.383  0.1099E+01  0.1066E+01  0.1551E+01  0.1559E+01
      1.516  0.3635E+00  0.3057E+00  0.1600E+01  0.1600E+01
      1.650  0.4766E-03  0.1518E-03  0.1600E+01  0.1600E+01
      1.783  0.9507E-11  0.6112E-12  0.1600E+01  0.1600E+01
      1.917  0.0000E+00  0.0000E+00  0.1600E+01  0.1600E+01
      2.050  0.0000E+00  0.0000E+00  0.1600E+01  0.1600E+01
      2.184  0.0000E+00  0.0000E+00  0.1600E+01  0.1600E+01
      2.317  0.0000E+00  0.0000E+00  0.1600E+01  0.1600E+01
      2.451  0.0000E+00  0.0000E+00  0.1600E+01  0.1600E+01
      2.584  0.0000E+00  0.0000E+00  0.1600E+01  0.1600E+01
      2.718  0.0000E+00  0.0000E+00  0.1600E+01  0.1600E+01
      2.851  0.0000E+00  0.0000E+00  0.1600E+01  0.1600E+01
      2.985  0.0000E+00  0.0000E+00  0.1600E+01  0.1600E+01
      3.118  0.0000E+00  0.0000E+00  0.1600E+01  0.1600E+01
      3.252  0.0000E+00  0.0000E+00  0.1600E+01  0.1600E+01
