       N       E                     dE             d eps       ncg     rms          rms(c)
DAV:   1     0.113609820887E+05    0.11361E+05   -0.28472E+05  7680   0.154E+03
DAV:   2     0.336587816380E+04   -0.79951E+04   -0.69241E+04  9216   0.389E+02
DAV:   3    -0.285762997444E+03   -0.36516E+04   -0.34978E+04 10848   0.242E+02
DAV:   4    -0.810980008217E+03   -0.52522E+03   -0.50744E+03 11856   0.104E+02
DAV:   5    -0.837869604919E+03   -0.26890E+02   -0.26427E+02 13296   0.289E+01    0.134E+02
DAV:   6    -0.646286582486E+03    0.19158E+03   -0.15532E+03 10320   0.548E+01    0.692E+01
DAV:   7    -0.673194034121E+03   -0.26907E+02   -0.12308E+03 13296   0.866E+01    0.782E+01
DAV:   8    -0.678944044155E+03   -0.57500E+01   -0.18377E+02 12528   0.263E+01    0.583E+01
DAV:   9    -0.647543146082E+03    0.31401E+02   -0.15758E+02 11184   0.208E+01    0.355E+01
DAV:  10    -0.651440732503E+03   -0.38976E+01   -0.59380E+01 13440   0.136E+01    0.223E+01
DAV:  11    -0.652566822828E+03   -0.11261E+01   -0.25254E+01 13344   0.844E+00    0.195E+01
DAV:  12    -0.651286393317E+03    0.12804E+01   -0.11835E+01 14352   0.608E+00    0.115E+01
DAV:  13    -0.655864892862E+03   -0.45785E+01   -0.39891E+00 12432   0.355E+00    0.765E+00
DAV:  14    -0.660381648634E+03   -0.45168E+01   -0.21585E+00 12336   0.297E+00    0.532E+00
DAV:  15    -0.664824811887E+03   -0.44432E+01   -0.40979E+00 10752   0.309E+00    0.516E+00
DAV:  16    -0.667068091680E+03   -0.22433E+01   -0.19085E+00 11952   0.191E+00    0.429E+00
DAV:  17    -0.668018982994E+03   -0.95089E+00   -0.47416E-01 12240   0.104E+00    0.365E+00
DAV:  18    -0.669004698404E+03   -0.98572E+00   -0.37545E-01 12000   0.854E-01    0.331E+00
DAV:  19    -0.670147309414E+03   -0.11426E+01   -0.45575E-01 12048   0.801E-01    0.172E+00
DAV:  20    -0.670351861406E+03   -0.20455E+00   -0.16113E-01 12288   0.636E-01    0.438E-01
DAV:  21    -0.670401606071E+03   -0.49745E-01   -0.19541E-02 14592   0.243E-01    0.395E-01
DAV:  22    -0.670440498522E+03   -0.38892E-01   -0.71470E-03 13344   0.191E-01    0.175E-01
DAV:  23    -0.670474802946E+03   -0.34304E-01   -0.75803E-03 12768   0.130E-01    0.180E-01
DAV:  24    -0.670494445711E+03   -0.19643E-01   -0.32547E-03 12240   0.823E-02    0.175E-01
DAV:  25    -0.670504395524E+03   -0.99498E-02   -0.12829E-03 12672   0.503E-02    0.126E-01
DAV:  26    -0.670513475989E+03   -0.90805E-02   -0.15221E-03 11856   0.477E-02    0.752E-02
DAV:  27    -0.670516418279E+03   -0.29423E-02   -0.73858E-04 12384   0.439E-02    0.446E-02
DAV:  28    -0.670518420601E+03   -0.20023E-02   -0.26410E-04 12144   0.266E-02    0.272E-02
DAV:  29    -0.670519630159E+03   -0.12096E-02   -0.16755E-04 12192   0.184E-02    0.260E-02
DAV:  30    -0.670520362406E+03   -0.73225E-03   -0.11269E-04 12576   0.153E-02    0.231E-02
DAV:  31    -0.670520703530E+03   -0.34112E-03   -0.63985E-05 12240   0.119E-02    0.130E-02
DAV:  32    -0.670520822444E+03   -0.11891E-03   -0.21077E-05 12000   0.642E-03    0.956E-03
DAV:  33    -0.670520902315E+03   -0.79871E-04   -0.11086E-05  9936   0.482E-03    0.868E-03
DAV:  34    -0.670520963589E+03   -0.61274E-04   -0.50790E-06  9408   0.426E-03    0.530E-03
DAV:  35    -0.670521014794E+03   -0.51204E-04   -0.67309E-06  9552   0.382E-03    0.346E-03
DAV:  36    -0.670521029676E+03   -0.14882E-04   -0.16597E-06  8352   0.240E-03    0.219E-03
DAV:  37    -0.670521036403E+03   -0.67277E-05   -0.93050E-07  7584   0.189E-03    0.226E-03
DAV:  38    -0.670521039406E+03   -0.30032E-05   -0.43546E-07  6432   0.150E-03    0.237E-03
DAV:  39    -0.670521042143E+03   -0.27368E-05   -0.26589E-07  5424   0.138E-03    0.159E-03
DAV:  40    -0.670521045003E+03   -0.28603E-05   -0.32809E-07  7056   0.125E-03    0.138E-03
DAV:  41    -0.670521046591E+03   -0.15876E-05   -0.19139E-07  5280   0.108E-03    0.141E-03
DAV:  42    -0.670521047490E+03   -0.89887E-06   -0.13893E-07  4992   0.111E-03
   1 F= -.67052105E+03 E0= -.67052105E+03  d E =-.670521E+03  mag=    18.0001
       N       E                     dE             d eps       ncg     rms          rms(c)
DAV:   1    -0.670483121612E+03    0.37925E-01   -0.15848E+01  7680   0.595E+00    0.809E-01
DAV:   2    -0.670554327475E+03   -0.71206E-01   -0.10104E+00 14112   0.232E+00    0.894E-01
DAV:   3    -0.670562402318E+03   -0.80748E-02   -0.12663E-01 14016   0.563E-01    0.603E-01
DAV:   4    -0.670561765597E+03    0.63672E-03   -0.28272E-02 14976   0.295E-01    0.657E-01
DAV:   5    -0.670560628633E+03    0.11370E-02   -0.60732E-03 14208   0.150E-01    0.371E-01
DAV:   6    -0.670559353431E+03    0.12752E-02   -0.29129E-03 13776   0.154E-01    0.203E-01
DAV:   7    -0.670559169041E+03    0.18439E-03   -0.28353E-03 13584   0.112E-01    0.780E-02
DAV:   8    -0.670559274421E+03   -0.10538E-03   -0.11417E-03 12672   0.740E-02    0.806E-02
DAV:   9    -0.670559253036E+03    0.21385E-04   -0.50037E-04 12864   0.387E-02    0.313E-02
DAV:  10    -0.670559274188E+03   -0.21153E-04   -0.90550E-05 14688   0.154E-02    0.263E-02
DAV:  11    -0.670559289712E+03   -0.15524E-04   -0.35479E-05 13872   0.134E-02    0.191E-02
DAV:  12    -0.670559307562E+03   -0.17850E-04   -0.22555E-05 12384   0.945E-03    0.107E-02
DAV:  13    -0.670559335977E+03   -0.28415E-04   -0.61986E-06 10176   0.637E-03    0.662E-03
DAV:  14    -0.670559367319E+03   -0.31342E-04   -0.40039E-06  9312   0.378E-03    0.465E-03
DAV:  15    -0.670559422251E+03   -0.54933E-04   -0.44814E-06  8208   0.331E-03    0.239E-03
DAV:  16    -0.670559468743E+03   -0.46491E-04   -0.36802E-06  8880   0.283E-03    0.327E-03
DAV:  17    -0.670559498517E+03   -0.29774E-04   -0.15964E-06  8352   0.209E-03    0.238E-03
DAV:  18    -0.670559522167E+03   -0.23650E-04   -0.11199E-06  7824   0.175E-03    0.186E-03
DAV:  19    -0.670559538014E+03   -0.15847E-04   -0.69845E-07  7200   0.140E-03    0.142E-03
DAV:  20    -0.670559547322E+03   -0.93081E-05   -0.44691E-07  6240   0.123E-03    0.930E-04
DAV:  21    -0.670559550722E+03   -0.34003E-05   -0.17457E-07  5040   0.104E-03    0.770E-04
DAV:  22    -0.670559552232E+03   -0.15097E-05   -0.12250E-07  4992   0.894E-04    0.640E-04
DAV:  23    -0.670559554576E+03   -0.23444E-05   -0.13872E-07  4992   0.836E-04    0.791E-04
DAV:  24    -0.670559555904E+03   -0.13281E-05   -0.12053E-07  4992   0.804E-04    0.647E-04
DAV:  25    -0.670559556238E+03   -0.33414E-06   -0.83002E-08  4992   0.714E-04
   2 F= -.67055956E+03 E0= -.67055956E+03  d E =-.385087E-01  mag=    18.0000
       N       E                     dE             d eps       ncg     rms          rms(c)
DAV:   1    -0.670559518423E+03    0.37481E-04   -0.17275E-02  8448   0.196E-01    0.271E-02
DAV:   2    -0.670559589174E+03   -0.70751E-04   -0.10442E-03 14064   0.766E-02    0.325E-02
DAV:   3    -0.670559595728E+03   -0.65543E-05   -0.13439E-04 14064   0.192E-02    0.205E-02
DAV:   4    -0.670559595122E+03    0.60579E-06   -0.29305E-05 14880   0.971E-03    0.222E-02
DAV:   5    -0.670559593807E+03    0.13156E-05   -0.64542E-06 12336   0.547E-03    0.111E-02
DAV:   6    -0.670559593734E+03    0.72134E-07   -0.21337E-06  8448   0.506E-03
   3 F= -.67055959E+03 E0= -.67055959E+03  d E =-.385462E-01  mag=    18.0000
       N       E                     dE             d eps       ncg     rms          rms(c)
DAV:   1    -0.670557108426E+03    0.24854E-02   -0.12735E+01  7680   0.504E+00    0.406E-01
DAV:   2    -0.670584842498E+03   -0.27734E-01   -0.30307E-01 12192   0.107E+00    0.658E-01
DAV:   3    -0.670585682916E+03   -0.84042E-03   -0.17597E-02 14784   0.205E-01    0.530E-01
DAV:   4    -0.670584358415E+03    0.13245E-02   -0.25388E-03 14064   0.147E-01    0.503E-01
DAV:   5    -0.670582481144E+03    0.18773E-02   -0.81227E-03 11232   0.259E-01    0.216E-01
DAV:   6    -0.670582951803E+03   -0.47066E-03   -0.65360E-03 12816   0.144E-01    0.178E-01
DAV:   7    -0.670582973946E+03   -0.22143E-04   -0.86095E-04 12048   0.535E-02    0.137E-01
DAV:   8    -0.670582950119E+03    0.23827E-04   -0.25817E-04 15216   0.411E-02    0.101E-01
DAV:   9    -0.670582925731E+03    0.24388E-04   -0.28941E-04 12672   0.504E-02    0.652E-02
DAV:  10    -0.670582970128E+03   -0.44398E-04   -0.32651E-04 12048   0.278E-02    0.485E-02
DAV:  11    -0.670582958369E+03    0.11760E-04   -0.39621E-05 13728   0.144E-02    0.459E-02
DAV:  12    -0.670582956597E+03    0.17721E-05   -0.39231E-05 11856   0.965E-03    0.385E-02
DAV:  13    -0.670582968743E+03   -0.12146E-04   -0.10516E-05 10992   0.657E-03    0.227E-02
DAV:  14    -0.670582977114E+03   -0.83705E-05   -0.83083E-06 10800   0.534E-03    0.117E-02
DAV:  15    -0.670582981127E+03   -0.40130E-05   -0.23355E-06  8400   0.290E-03    0.102E-02
DAV:  16    -0.670582985772E+03   -0.46449E-05   -0.62355E-07  7152   0.236E-03    0.621E-03
DAV:  17    -0.670582989606E+03   -0.38349E-05   -0.61631E-07  6336   0.197E-03    0.403E-03
DAV:  18    -0.670582996296E+03   -0.66899E-05   -0.11861E-06  7680   0.240E-03    0.107E-03
DAV:  19    -0.670582998773E+03   -0.24765E-05   -0.49765E-07  6096   0.189E-03    0.143E-03
DAV:  20    -0.670582999124E+03   -0.35153E-06   -0.22934E-07  4992   0.143E-03
   4 F= -.67058300E+03 E0= -.67058300E+03  d E =-.234054E-01  mag=    18.0000
       N       E                     dE             d eps       ncg     rms          rms(c)
DAV:   1    -0.670573816115E+03    0.91827E-02   -0.70127E+00  7680   0.375E+00    0.302E-01
DAV:   2    -0.670589131773E+03   -0.15316E-01   -0.16766E-01 12240   0.797E-01    0.494E-01
DAV:   3    -0.670589606468E+03   -0.47469E-03   -0.96908E-03 14928   0.153E-01    0.403E-01
DAV:   4    -0.670588885994E+03    0.72047E-03   -0.14009E-03 14064   0.107E-01    0.384E-01
DAV:   5    -0.670587818106E+03    0.10679E-02   -0.46816E-03 11328   0.193E-01    0.169E-01
DAV:   6    -0.670588073472E+03   -0.25537E-03   -0.36259E-03 12576   0.111E-01    0.137E-01
DAV:   7    -0.670588094082E+03   -0.20610E-04   -0.53153E-04 12288   0.420E-02    0.108E-01
DAV:   8    -0.670588086491E+03    0.75910E-05   -0.16260E-04 14928   0.308E-02    0.796E-02
DAV:   9    -0.670588069742E+03    0.16749E-04   -0.14213E-04 12528   0.365E-02    0.520E-02
DAV:  10    -0.670588092855E+03   -0.23113E-04   -0.17713E-04 12240   0.214E-02    0.371E-02
DAV:  11    -0.670588087682E+03    0.51735E-05   -0.25343E-05 12672   0.115E-02    0.359E-02
DAV:  12    -0.670588089376E+03   -0.16944E-05   -0.25400E-05 12672   0.768E-03    0.291E-02
DAV:  13    -0.670588097535E+03   -0.81586E-05   -0.89289E-06 11184   0.501E-03    0.178E-02
DAV:  14    -0.670588102918E+03   -0.53833E-05   -0.42315E-06 10272   0.570E-03    0.103E-02
DAV:  15    -0.670588107121E+03   -0.42031E-05   -0.59124E-06 10320   0.370E-03    0.869E-03
DAV:  16    -0.670588110983E+03   -0.38619E-05   -0.83705E-07  7296   0.236E-03    0.497E-03
DAV:  17    -0.670588113227E+03   -0.22440E-05   -0.72568E-07  6384   0.188E-03    0.310E-03
DAV:  18    -0.670588116453E+03   -0.32262E-05   -0.71906E-07  7440   0.178E-03    0.967E-04
DAV:  19    -0.670588119475E+03   -0.30219E-05   -0.37344E-07  6288   0.157E-03    0.110E-03
DAV:  20    -0.670588120268E+03   -0.79341E-06   -0.19108E-07  5424   0.136E-03
   5 F= -.67058812E+03 E0= -.67058812E+03  d E =-.285265E-01  mag=    18.0000
       N       E                     dE             d eps       ncg     rms          rms(c)
DAV:   1    -0.670572807627E+03    0.15312E-01   -0.74809E+00  7680   0.413E+00    0.476E-01
DAV:   2    -0.670600072419E+03   -0.27265E-01   -0.31357E-01 13488   0.123E+00    0.412E-01
DAV:   3    -0.670600600985E+03   -0.52857E-03   -0.21441E-02 14016   0.270E-01    0.325E-01
DAV:   4    -0.670600514709E+03    0.86276E-04   -0.67976E-03 14784   0.135E-01    0.261E-01
DAV:   5    -0.670600284746E+03    0.22996E-03   -0.18225E-03 14592   0.115E-01    0.199E-01
DAV:   6    -0.670600201954E+03    0.82792E-04   -0.15840E-03 12192   0.927E-02    0.822E-02
DAV:   7    -0.670600194601E+03    0.73530E-05   -0.93836E-04 12576   0.585E-02    0.413E-02
DAV:   8    -0.670600206630E+03   -0.12028E-04   -0.32559E-04 13680   0.352E-02    0.339E-02
DAV:   9    -0.670600206120E+03    0.50954E-06   -0.81183E-05 13152   0.179E-02    0.224E-02
DAV:  10    -0.670600207985E+03   -0.18649E-05   -0.34184E-05 12048   0.926E-03    0.142E-02
DAV:  11    -0.670600215199E+03   -0.72146E-05   -0.88626E-06 11904   0.695E-03    0.774E-03
DAV:  12    -0.670600220737E+03   -0.55375E-05   -0.32485E-06  9024   0.409E-03    0.650E-03
DAV:  13    -0.670600224110E+03   -0.33731E-05   -0.14375E-06  7632   0.330E-03    0.353E-03
DAV:  14    -0.670600225822E+03   -0.17121E-05   -0.12812E-06  6672   0.212E-03    0.204E-03
DAV:  15    -0.670600228398E+03   -0.25756E-05   -0.26195E-07  6144   0.169E-03    0.152E-03
DAV:  16    -0.670600230581E+03   -0.21837E-05   -0.16118E-07  5472   0.978E-04    0.132E-03
DAV:  17    -0.670600232898E+03   -0.23166E-05   -0.13011E-07  5040   0.101E-03    0.108E-03
DAV:  18    -0.670600238426E+03   -0.55276E-05   -0.34627E-07  5472   0.989E-04    0.851E-04
DAV:  19    -0.670600240111E+03   -0.16853E-05   -0.12012E-07  4992   0.994E-04    0.120E-03
DAV:  20    -0.670600240738E+03   -0.62733E-06   -0.85734E-08  4992   0.661E-04
   6 F= -.67060024E+03 E0= -.67060024E+03  d E =-.121205E-01  mag=    18.0000
       N       E                     dE             d eps       ncg     rms          rms(c)
DAV:   1    -0.670581777940E+03    0.18462E-01   -0.60395E+00  7680   0.370E+00    0.425E-01
DAV:   2    -0.670603624296E+03   -0.21846E-01   -0.25106E-01 13488   0.110E+00    0.368E-01
DAV:   3    -0.670604047276E+03   -0.42298E-03   -0.17152E-02 14112   0.243E-01    0.291E-01
DAV:   4    -0.670603971455E+03    0.75821E-04   -0.54509E-03 14928   0.121E-01    0.233E-01
DAV:   5    -0.670603784605E+03    0.18685E-03   -0.14889E-03 14592   0.103E-01    0.178E-01
DAV:   6    -0.670603719584E+03    0.65021E-04   -0.12595E-03 12240   0.829E-02    0.728E-02
DAV:   7    -0.670603712967E+03    0.66173E-05   -0.74389E-04 12528   0.521E-02    0.367E-02
DAV:   8    -0.670603723458E+03   -0.10491E-04   -0.26689E-04 13536   0.318E-02    0.306E-02
DAV:   9    -0.670603722306E+03    0.11523E-05   -0.67460E-05 13056   0.162E-02    0.200E-02
DAV:  10    -0.670603723521E+03   -0.12153E-05   -0.27821E-05 12144   0.837E-03    0.126E-02
DAV:  11    -0.670603729223E+03   -0.57015E-05   -0.73016E-06 11328   0.630E-03    0.696E-03
DAV:  12    -0.670603733230E+03   -0.40071E-05   -0.26001E-06  8592   0.379E-03    0.594E-03
DAV:  13    -0.670603735601E+03   -0.23709E-05   -0.11324E-06  7344   0.312E-03    0.341E-03
DAV:  14    -0.670603736887E+03   -0.12868E-05   -0.10066E-06  6384   0.197E-03    0.175E-03
DAV:  15    -0.670603739311E+03   -0.24237E-05   -0.33678E-07  6000   0.173E-03    0.129E-03
DAV:  16    -0.670603741005E+03   -0.16936E-05   -0.19259E-07  5280   0.105E-03    0.107E-03
DAV:  17    -0.670603744868E+03   -0.38637E-05   -0.20109E-07  5088   0.110E-03    0.104E-03
DAV:  18    -0.670603747494E+03   -0.26259E-05   -0.19953E-07  4992   0.908E-04    0.918E-04
DAV:  19    -0.670603748402E+03   -0.90816E-06   -0.12577E-07  4992   0.926E-04
   7 F= -.67060375E+03 E0= -.67060375E+03  d E =-.156281E-01  mag=    18.0000
       N       E                     dE             d eps       ncg     rms          rms(c)
DAV:   1    -0.670596811418E+03    0.69361E-02   -0.45503E+00  7680   0.323E+00    0.318E-01
DAV:   2    -0.670612973724E+03   -0.16162E-01   -0.18458E-01 13392   0.935E-01    0.291E-01
DAV:   3    -0.670613564186E+03   -0.59046E-03   -0.11951E-02 14016   0.194E-01    0.236E-01
DAV:   4    -0.670613513329E+03    0.50858E-04   -0.32541E-03 14496   0.932E-02    0.197E-01
DAV:   5    -0.670613332144E+03    0.18118E-03   -0.90223E-04 14688   0.840E-02    0.140E-01
DAV:   6    -0.670613216025E+03    0.11612E-03   -0.59229E-04 12336   0.705E-02    0.524E-02
DAV:   7    -0.670613257177E+03   -0.41152E-04   -0.61236E-04 11856   0.404E-02    0.420E-02
DAV:   8    -0.670613261698E+03   -0.45217E-05   -0.10631E-04 13968   0.209E-02    0.329E-02
DAV:   9    -0.670613261806E+03   -0.10752E-06   -0.36512E-05 14160   0.115E-02    0.236E-02
DAV:  10    -0.670613265587E+03   -0.37815E-05   -0.14719E-05 11616   0.840E-03    0.173E-02
DAV:  11    -0.670613271021E+03   -0.54333E-05   -0.94617E-06 11280   0.494E-03    0.104E-02
DAV:  12    -0.670613274886E+03   -0.38651E-05   -0.34112E-06  9120   0.372E-03    0.930E-03
DAV:  13    -0.670613281531E+03   -0.66447E-05   -0.13153E-06  7440   0.268E-03    0.445E-03
DAV:  14    -0.670613284510E+03   -0.29796E-05   -0.19074E-06  7680   0.254E-03    0.165E-03
DAV:  15    -0.670613287717E+03   -0.32071E-05   -0.39429E-07  5424   0.167E-03    0.154E-03
DAV:  16    -0.670613290450E+03   -0.27325E-05   -0.25864E-07  5856   0.141E-03    0.113E-03
DAV:  17    -0.670613293624E+03   -0.31738E-05   -0.19062E-07  4992   0.974E-04    0.148E-03
DAV:  18    -0.670613295426E+03   -0.18022E-05   -0.12597E-07  4992   0.817E-04    0.909E-04
DAV:  19    -0.670613299500E+03   -0.40740E-05   -0.36390E-07  6048   0.795E-04    0.962E-04
DAV:  20    -0.670613301523E+03   -0.20237E-05   -0.10971E-07  4992   0.703E-04    0.109E-03
DAV:  21    -0.670613301874E+03   -0.35042E-06   -0.57298E-08  4992   0.556E-04
   8 F= -.67061330E+03 E0= -.67061330E+03  d E =-.955347E-02  mag=    18.0000
       N       E                     dE             d eps       ncg     rms          rms(c)
DAV:   1    -0.670475737585E+03    0.13756E+00   -0.40936E+01  7680   0.972E+00    0.964E-01
DAV:   2    -0.670624711917E+03   -0.14897E+00   -0.17004E+00 13392   0.282E+00    0.877E-01
DAV:   3    -0.670630365808E+03   -0.56539E-02   -0.11145E-01 14016   0.588E-01    0.726E-01
DAV:   4    -0.670630216696E+03    0.14911E-03   -0.28141E-02 14400   0.269E-01    0.610E-01
DAV:   5    -0.670628735885E+03    0.14808E-02   -0.75459E-03 14880   0.240E-01    0.466E-01
DAV:   6    -0.670627278421E+03    0.14575E-02   -0.57679E-03 12240   0.243E-01    0.176E-01
DAV:   7    -0.670627716707E+03   -0.43829E-03   -0.74197E-03 12048   0.138E-01    0.134E-01
DAV:   8    -0.670627723457E+03   -0.67504E-05   -0.11678E-03 13536   0.664E-02    0.104E-01
DAV:   9    -0.670627701758E+03    0.21700E-04   -0.33811E-04 14448   0.394E-02    0.762E-02
DAV:  10    -0.670627705566E+03   -0.38087E-05   -0.18547E-04 13008   0.322E-02    0.478E-02
DAV:  11    -0.670627741446E+03   -0.35879E-04   -0.14012E-04 11808   0.178E-02    0.286E-02
DAV:  12    -0.670627752358E+03   -0.10912E-04   -0.51120E-05 13488   0.139E-02    0.290E-02
DAV:  13    -0.670627788117E+03   -0.35759E-04   -0.12896E-05 11712   0.683E-03    0.164E-02
DAV:  14    -0.670627814159E+03   -0.26042E-04   -0.17767E-05 10848   0.783E-03    0.462E-03
DAV:  15    -0.670627843407E+03   -0.29248E-04   -0.46446E-06 10272   0.420E-03    0.299E-03
DAV:  16    -0.670627865333E+03   -0.21927E-04   -0.16894E-06  8256   0.269E-03    0.306E-03
DAV:  17    -0.670627880939E+03   -0.15606E-04   -0.77484E-07  6720   0.227E-03    0.164E-03
DAV:  18    -0.670627904921E+03   -0.23981E-04   -0.19350E-06  6864   0.184E-03    0.218E-03
DAV:  19    -0.670627917740E+03   -0.12820E-04   -0.60252E-07  6192   0.130E-03    0.233E-03
DAV:  20    -0.670627926940E+03   -0.91996E-05   -0.48870E-07  5952   0.129E-03    0.151E-03
DAV:  21    -0.670627931408E+03   -0.44677E-05   -0.23315E-07  5136   0.100E-03    0.101E-03
DAV:  22    -0.670627932663E+03   -0.12556E-05   -0.11116E-07  4992   0.832E-04    0.103E-03
DAV:  23    -0.670627934281E+03   -0.16177E-05   -0.97840E-08  4992   0.724E-04    0.813E-04
DAV:  24    -0.670627934956E+03   -0.67457E-06   -0.71222E-08  4992   0.679E-04
   9 F= -.67062793E+03 E0= -.67062793E+03  d E =-.241866E-01  mag=    18.0000
       N       E                     dE             d eps       ncg     rms          rms(c)
DAV:   1    -0.670621296563E+03    0.66377E-02   -0.19718E+00  7680   0.213E+00    0.211E-01
DAV:   2    -0.670628291452E+03   -0.69949E-02   -0.79906E-02 13392   0.619E-01    0.179E-01
DAV:   3    -0.670628526199E+03   -0.23475E-03   -0.51652E-03 13920   0.129E-01    0.147E-01
DAV:   4    -0.670628511790E+03    0.14409E-04   -0.14101E-03 14496   0.602E-02    0.123E-01
DAV:   5    -0.670628436721E+03    0.75069E-04   -0.35536E-04 14736   0.531E-02    0.872E-02
DAV:   6    -0.670628392722E+03    0.43998E-04   -0.24861E-04 12288   0.476E-02    0.323E-02
DAV:   7    -0.670628411880E+03   -0.19158E-04   -0.25532E-04 11952   0.258E-02    0.255E-02
DAV:   8    -0.670628414987E+03   -0.31067E-05   -0.43645E-05 14112   0.129E-02    0.195E-02
DAV:   9    -0.670628415650E+03   -0.66309E-06   -0.14236E-05 13728   0.788E-03    0.139E-02
DAV:  10    -0.670628418432E+03   -0.27818E-05   -0.67355E-06 10416   0.562E-03    0.865E-03
DAV:  11    -0.670628421022E+03   -0.25897E-05   -0.24811E-06  8256   0.320E-03    0.541E-03
DAV:  12    -0.670628423536E+03   -0.25139E-05   -0.67623E-07  6048   0.254E-03    0.536E-03
DAV:  13    -0.670628426072E+03   -0.25368E-05   -0.53219E-07  6000   0.165E-03    0.287E-03
DAV:  14    -0.670628428124E+03   -0.20516E-05   -0.62978E-07  5760   0.189E-03    0.185E-03
DAV:  15    -0.670628429465E+03   -0.13411E-05   -0.30783E-07  4992   0.130E-03    0.133E-03
DAV:  16    -0.670628430295E+03   -0.82984E-06   -0.15418E-07  4992   0.111E-03
  10 F= -.67062843E+03 E0= -.67062843E+03  d E =-.246819E-01  mag=    18.0000
       N       E                     dE             d eps       ncg     rms          rms(c)
DAV:   1    -0.670621672417E+03    0.67570E-02   -0.48502E+00  7680   0.320E+00    0.282E-01
DAV:   2    -0.670635143559E+03   -0.13471E-01   -0.14745E-01 12336   0.814E-01    0.366E-01
DAV:   3    -0.670635675486E+03   -0.53193E-03   -0.10581E-02 14256   0.162E-01    0.292E-01
DAV:   4    -0.670635287356E+03    0.38813E-03   -0.31395E-03 13872   0.102E-01    0.253E-01
DAV:   5    -0.670635008234E+03    0.27912E-03   -0.10974E-03 13824   0.868E-02    0.175E-01
DAV:   6    -0.670634908919E+03    0.99315E-04   -0.10757E-03 12000   0.630E-02    0.989E-02
DAV:   7    -0.670634937780E+03   -0.28861E-04   -0.49346E-04 11856   0.372E-02    0.738E-02
DAV:   8    -0.670634925652E+03    0.12128E-04   -0.14290E-04 14208   0.239E-02    0.556E-02
DAV:   9    -0.670634920903E+03    0.47488E-05   -0.85402E-05 12336   0.145E-02    0.331E-02
DAV:  10    -0.670634927283E+03   -0.63797E-05   -0.16483E-05 12096   0.683E-03    0.252E-02
DAV:  11    -0.670634935562E+03   -0.82786E-05   -0.74638E-06  9648   0.533E-03    0.146E-02
DAV:  12    -0.670634942434E+03   -0.68725E-05   -0.62429E-06  9648   0.520E-03    0.792E-03
DAV:  13    -0.670634945614E+03   -0.31802E-05   -0.59435E-06 11232   0.404E-03    0.362E-03
DAV:  14    -0.670634948806E+03   -0.31919E-05   -0.60285E-07  6384   0.215E-03    0.311E-03
DAV:  15    -0.670634950535E+03   -0.17286E-05   -0.35608E-07  5424   0.142E-03    0.218E-03
DAV:  16    -0.670634955569E+03   -0.50338E-05   -0.25291E-07  5136   0.120E-03    0.137E-03
DAV:  17    -0.670634958569E+03   -0.30009E-05   -0.14894E-07  5568   0.108E-03    0.135E-03
DAV:  18    -0.670634960014E+03   -0.14447E-05   -0.10374E-07  4992   0.899E-04    0.106E-03
DAV:  19    -0.670634962193E+03   -0.21783E-05   -0.15944E-07  4992   0.841E-04    0.811E-04
DAV:  20    -0.670634963676E+03   -0.14831E-05   -0.11425E-07  4992   0.897E-04    0.782E-04
DAV:  21    -0.670634964327E+03   -0.65133E-06   -0.70877E-08  4992   0.633E-04
  11 F= -.67063496E+03 E0= -.67063496E+03  d E =-.653403E-02  mag=    18.0000
       N       E                     dE             d eps       ncg     rms          rms(c)
DAV:   1    -0.670522528070E+03    0.11244E+00   -0.43626E+01  7680   0.959E+00    0.864E-01
DAV:   2    -0.670648018906E+03   -0.12549E+00   -0.13778E+00 12384   0.245E+00    0.110E+00
DAV:   3    -0.670651748262E+03   -0.37294E-02   -0.92290E-02 14112   0.503E-01    0.893E-01
DAV:   4    -0.670648412233E+03    0.33360E-02   -0.27464E-02 14112   0.307E-01    0.741E-01
DAV:   5    -0.670646254644E+03    0.21576E-02   -0.84896E-03 14352   0.241E-01    0.525E-01
DAV:   6    -0.670645228586E+03    0.10261E-02   -0.98583E-03 11760   0.194E-01    0.243E-01
DAV:   7    -0.670645388388E+03   -0.15980E-03   -0.39118E-03 12048   0.103E-01    0.193E-01
DAV:   8    -0.670645265671E+03    0.12272E-03   -0.11932E-03 14064   0.671E-02    0.126E-01
DAV:   9    -0.670645242715E+03    0.22956E-04   -0.39944E-04 12144   0.293E-02    0.900E-02
DAV:  10    -0.670645262616E+03   -0.19901E-04   -0.10173E-04 13968   0.177E-02    0.846E-02
DAV:  11    -0.670645281239E+03   -0.18623E-04   -0.80215E-05 12720   0.155E-02    0.431E-02
DAV:  12    -0.670645296251E+03   -0.15012E-04   -0.76913E-05 11904   0.160E-02    0.214E-02
DAV:  13    -0.670645303098E+03   -0.68471E-05   -0.42684E-05 11952   0.962E-03    0.850E-03
DAV:  14    -0.670645311618E+03   -0.85194E-05   -0.31563E-06  9024   0.364E-03    0.846E-03
DAV:  15    -0.670645327169E+03   -0.15552E-04   -0.22653E-06  8544   0.304E-03    0.653E-03
DAV:  16    -0.670645354756E+03   -0.27587E-04   -0.10363E-06  7824   0.265E-03    0.326E-03
DAV:  17    -0.670645362683E+03   -0.79262E-05   -0.14186E-06  8016   0.255E-03    0.271E-03
DAV:  18    -0.670645366744E+03   -0.40609E-05   -0.47412E-07  5904   0.169E-03    0.215E-03
DAV:  19    -0.670645378699E+03   -0.11956E-04   -0.46717E-07  5520   0.160E-03    0.163E-03
DAV:  20    -0.670645385776E+03   -0.70771E-05   -0.26483E-07  5040   0.123E-03    0.241E-03
DAV:  21    -0.670645386737E+03   -0.96098E-06   -0.13995E-07  4992   0.103E-03
  12 F= -.67064539E+03 E0= -.67064539E+03  d E =-.169564E-01  mag=    18.0000
       N       E                     dE             d eps       ncg     rms          rms(c)
DAV:   1    -0.670603082984E+03    0.42303E-01   -0.10673E+01  7776   0.454E+00    0.572E-01
DAV:   2    -0.670645255737E+03   -0.42173E-01   -0.54375E-01 13440   0.166E+00    0.837E-01
DAV:   3    -0.670649035089E+03   -0.37794E-02   -0.59782E-02 14160   0.393E-01    0.602E-01
DAV:   4    -0.670649092607E+03   -0.57518E-04   -0.18006E-02 14304   0.230E-01    0.705E-01
DAV:   5    -0.670648522355E+03    0.57025E-03   -0.38147E-03 14880   0.125E-01    0.461E-01
DAV:   6    -0.670647811426E+03    0.71093E-03   -0.25764E-03 13392   0.127E-01    0.286E-01
DAV:   7    -0.670647610770E+03    0.20066E-03   -0.25838E-03 12912   0.101E-01    0.138E-01
DAV:   8    -0.670647651008E+03   -0.40238E-04   -0.80320E-04 12000   0.493E-02    0.107E-01
DAV:   9    -0.670647643930E+03    0.70782E-05   -0.32646E-04 13968   0.328E-02    0.806E-02
DAV:  10    -0.670647647651E+03   -0.37210E-05   -0.70559E-05 13584   0.150E-02    0.588E-02
DAV:  11    -0.670647636839E+03    0.10812E-04   -0.71076E-05 13056   0.158E-02    0.251E-02
DAV:  12    -0.670647636444E+03    0.39538E-06   -0.42043E-05 11664   0.110E-02    0.101E-02
DAV:  13    -0.670647637197E+03   -0.75260E-06   -0.81974E-06 11712   0.663E-03
  13 F= -.67064764E+03 E0= -.67064764E+03  d E =-.225046E-02  mag=    18.0000
       N       E                     dE             d eps       ncg     rms          rms(c)
DAV:   1    -0.670642677214E+03    0.49592E-02   -0.15671E+00  7680   0.176E+00    0.228E-01
DAV:   2    -0.670648665354E+03   -0.59881E-02   -0.77310E-02 13680   0.645E-01    0.318E-01
DAV:   3    -0.670649161998E+03   -0.49664E-03   -0.81788E-03 14112   0.149E-01    0.220E-01
DAV:   4    -0.670649183148E+03   -0.21150E-04   -0.28275E-03 14304   0.908E-02    0.260E-01
DAV:   5    -0.670649080719E+03    0.10243E-03   -0.70271E-04 14592   0.577E-02    0.147E-01
DAV:   6    -0.670649007264E+03    0.73455E-04   -0.28591E-04 13728   0.453E-02    0.972E-02
DAV:   7    -0.670648997765E+03    0.94985E-05   -0.29014E-04 12912   0.327E-02    0.521E-02
DAV:   8    -0.670649013947E+03   -0.16181E-04   -0.83506E-05 12144   0.160E-02    0.358E-02
DAV:   9    -0.670649016149E+03   -0.22023E-05   -0.49495E-05 13776   0.125E-02    0.272E-02
DAV:  10    -0.670649017153E+03   -0.10042E-05   -0.11159E-05 11952   0.612E-03    0.190E-02
DAV:  11    -0.670649018569E+03   -0.14158E-05   -0.98254E-06 10512   0.595E-03    0.809E-03
DAV:  12    -0.670649019082E+03   -0.51287E-06   -0.51811E-06 10176   0.400E-03
  14 F= -.67064902E+03 E0= -.67064902E+03  d E =-.363234E-02  mag=    18.0000
       N       E                     dE             d eps       ncg     rms          rms(c)
DAV:   1    -0.670644025503E+03    0.49931E-02   -0.23085E+00  7680   0.210E+00    0.207E-01
DAV:   2    -0.670650191625E+03   -0.61661E-02   -0.68883E-02 11904   0.536E-01    0.250E-01
DAV:   3    -0.670650456568E+03   -0.26494E-03   -0.54771E-03 14400   0.115E-01    0.222E-01
DAV:   4    -0.670650293803E+03    0.16276E-03   -0.14989E-03 13488   0.624E-02    0.192E-01
DAV:   5    -0.670650154787E+03    0.13902E-03   -0.42302E-04 14352   0.479E-02    0.105E-01
DAV:   6    -0.670650117460E+03    0.37327E-04   -0.46431E-04 11856   0.376E-02    0.821E-02
DAV:   7    -0.670650117302E+03    0.15831E-06   -0.25712E-04 12960   0.327E-02    0.525E-02
DAV:   8    -0.670650112415E+03    0.48867E-05   -0.59633E-05 12624   0.146E-02    0.385E-02
DAV:   9    -0.670650105718E+03    0.66970E-05   -0.31897E-05 13152   0.853E-03    0.254E-02
DAV:  10    -0.670650104698E+03    0.10200E-05   -0.14385E-05 11184   0.570E-03    0.159E-02
DAV:  11    -0.670650106267E+03   -0.15689E-05   -0.85321E-06 10560   0.523E-03    0.536E-03
DAV:  12    -0.670650110890E+03   -0.46226E-05   -0.56488E-06 10272   0.391E-03    0.353E-03
DAV:  13    -0.670650112398E+03   -0.15084E-05   -0.56123E-07  6144   0.241E-03    0.255E-03
DAV:  14    -0.670650113710E+03   -0.13117E-05   -0.53662E-07  5952   0.175E-03    0.187E-03
DAV:  15    -0.670650114908E+03   -0.11981E-05   -0.28388E-07  4992   0.144E-03    0.119E-03
DAV:  16    -0.670650117306E+03   -0.23977E-05   -0.62558E-07  5568   0.138E-03    0.101E-03
DAV:  17    -0.670650118743E+03   -0.14374E-05   -0.19733E-07  4992   0.121E-03    0.732E-04
DAV:  18    -0.670650120103E+03   -0.13597E-05   -0.12740E-07  4992   0.743E-04    0.672E-04
DAV:  19    -0.670650121094E+03   -0.99159E-06   -0.99213E-08  4992   0.792E-04
  15 F= -.67065012E+03 E0= -.67065012E+03  d E =-.110201E-02  mag=    18.0000
       N       E                     dE             d eps       ncg     rms          rms(c)
DAV:   1    -0.670650118356E+03    0.17468E-05   -0.17108E-03  8496   0.571E-02    0.572E-03
DAV:   2    -0.670650123373E+03   -0.50176E-05   -0.50964E-05 11712   0.149E-02    0.686E-03
DAV:   3    -0.670650123652E+03   -0.27830E-06   -0.36917E-06 10704   0.322E-03    0.588E-03
DAV:   4    -0.670650123600E+03    0.51783E-07   -0.64496E-07  5088   0.199E-03    0.563E-03
DAV:   5    -0.670650123873E+03   -0.27331E-06   -0.20152E-06  7680   0.261E-03    0.273E-03
DAV:   6    -0.670650124031E+03   -0.15803E-06   -0.46597E-07  6144   0.198E-03
  16 F= -.67065012E+03 E0= -.67065012E+03  d E =-.110495E-02  mag=    18.0000
       N       E                     dE             d eps       ncg     rms          rms(c)
DAV:   1    -0.670649475765E+03    0.64811E-03   -0.31277E-01  7680   0.793E-01    0.790E-02
DAV:   2    -0.670650232525E+03   -0.75676E-03   -0.10088E-02 12672   0.200E-01    0.105E-01
DAV:   3    -0.670650255115E+03   -0.22590E-04   -0.86381E-04 13968   0.478E-02    0.724E-02
DAV:   4    -0.670650231497E+03    0.23618E-04   -0.19225E-04 14160   0.275E-02    0.728E-02
DAV:   5    -0.670650186460E+03    0.45038E-04   -0.89776E-05 13152   0.207E-02    0.327E-02
DAV:   6    -0.670650161564E+03    0.24896E-04   -0.62304E-05 13056   0.180E-02    0.159E-02
DAV:   7    -0.670650155882E+03    0.56817E-05   -0.33711E-05 13248   0.998E-03    0.947E-03
DAV:   8    -0.670650154731E+03    0.11508E-05   -0.92435E-06 10704   0.538E-03    0.917E-03
DAV:   9    -0.670650155801E+03   -0.10698E-05   -0.18776E-06  8016   0.341E-03    0.519E-03
DAV:  10    -0.670650160060E+03   -0.42589E-05   -0.20688E-06  8976   0.268E-03    0.352E-03
DAV:  11    -0.670650164507E+03   -0.44467E-05   -0.11916E-06  6480   0.292E-03    0.264E-03
DAV:  12    -0.670650169098E+03   -0.45907E-05   -0.10630E-06  7728   0.225E-03    0.211E-03
DAV:  13    -0.670650176030E+03   -0.69329E-05   -0.76390E-07  7200   0.206E-03    0.152E-03
DAV:  14    -0.670650180961E+03   -0.49308E-05   -0.41172E-07  6480   0.139E-03    0.160E-03
DAV:  15    -0.670650183190E+03   -0.22292E-05   -0.24518E-07  4992   0.120E-03    0.111E-03
DAV:  16    -0.670650186835E+03   -0.36443E-05   -0.36146E-07  5760   0.987E-04    0.106E-03
DAV:  17    -0.670650190988E+03   -0.41536E-05   -0.38077E-07  5856   0.993E-04    0.816E-04
DAV:  18    -0.670650192444E+03   -0.14558E-05   -0.12498E-07  4992   0.764E-04    0.922E-04
DAV:  19    -0.670650193783E+03   -0.13383E-05   -0.13607E-07  4992   0.752E-04    0.670E-04
DAV:  20    -0.670650194233E+03   -0.45090E-06   -0.81995E-08  4992   0.715E-04
  17 F= -.67065019E+03 E0= -.67065019E+03  d E =-.702021E-04  mag=    18.0000
       N       E                     dE             d eps       ncg     rms          rms(c)
DAV:   1    -0.670650162579E+03    0.31203E-04   -0.58761E-02  7728   0.343E-01    0.340E-02
DAV:   2    -0.670650304879E+03   -0.14230E-03   -0.19109E-03 12816   0.867E-02    0.457E-02
DAV:   3    -0.670650309076E+03   -0.41968E-05   -0.15560E-04 14016   0.206E-02    0.315E-02
DAV:   4    -0.670650304974E+03    0.41018E-05   -0.36667E-05 14304   0.119E-02    0.317E-02
DAV:   5    -0.670650297290E+03    0.76834E-05   -0.17226E-05 12768   0.904E-03    0.142E-02
DAV:   6    -0.670650294023E+03    0.32673E-05   -0.11699E-05 12144   0.774E-03    0.703E-03
DAV:   7    -0.670650293445E+03    0.57775E-06   -0.56387E-06  9792   0.438E-03
  18 F= -.67065029E+03 E0= -.67065029E+03  d E =-.169414E-03  mag=    18.0000
