<?xml version="1.0" encoding="ISO-8859-1"?>
<modeling>
 <generator>
  <i name="program" type="string">vasp </i>
  <i name="version" type="string">6.4.3  </i>
  <i name="subversion" type="string">19Mar24 (build Mar 01 2025 17:53:50) complex                          parallel </i>
  <i name="platform" type="string">Shaheen </i>
  <i name="date" type="string">2025 04 17 </i>
  <i name="time" type="string">19:40:37 </i>
 </generator>
 <incar>
  <i type="int" name="ISTART">     1</i>
  <i type="string" name="PREC">Accurate   (Precision level: Normal or Accurate, set Accurate when perform structure lattice relaxation calculation)</i>
  <i type="logical" name="ADDGRID"> T  </i>
  <i type="int" name="ISPIN">     2</i>
  <i type="int" name="NELM">    90</i>
  <i type="int" name="NELMIN">     6</i>
  <i type="int" name="IBRION">     2</i>
  <i name="EDIFF">      0.00000100</i>
  <i name="EDIFFG">     -0.02000000</i>
  <i type="int" name="NSW">   300</i>
  <i type="int" name="ISIF">     2</i>
  <i name="ENCUT">    520.00000000</i>
  <v name="MAGMOM">      1.00000000      1.00000000      1.00000000      1.00000000      1.00000000      1.00000000      1.00000000      1.00000000      1.00000000      1.00000000      1.00000000      1.00000000      1.00000000      1.00000000      1.00000000      1.00000000      1.00000000      1.00000000      1.00000000      1.00000000
      1.00000000      1.00000000      1.00000000      1.00000000      1.00000000      1.00000000      1.00000000      0.60000000      0.60000000      0.60000000      0.60000000      0.60000000      0.60000000      0.60000000      0.60000000      0.60000000      0.60000000      0.60000000      0.60000000      0.60000000
      0.60000000      0.60000000      0.60000000      0.60000000      0.60000000      0.60000000      0.60000000      0.60000000      0.60000000      0.60000000      0.60000000      0.60000000      0.60000000      0.60000000      0.60000000      0.60000000      0.60000000      0.60000000      0.60000000      0.60000000
      0.60000000      0.60000000      0.60000000      0.60000000      0.60000000      0.60000000      0.60000000      0.60000000      0.60000000      0.60000000      0.60000000      0.60000000      0.60000000      0.60000000      0.60000000      0.60000000      0.60000000      0.60000000      0.60000000      0.60000000
      0.60000000      0.60000000      0.60000000      0.60000000      0.60000000      0.60000000      0.60000000      0.60000000      0.60000000      0.60000000</v>
  <i type="logical" name="LREAL"> F  </i>
  <i type="int" name="ISMEAR">     0</i>
  <i name="SIGMA">      0.05000000</i>
  <i type="int" name="LMAXMIX">     6</i>
  <i type="logical" name="LWAVE"> F  </i>
  <i type="logical" name="LCHARG"> F  </i>
  <i type="logical" name="LASPH"> T  </i>
  <i type="logical" name="LDAU"> T  </i>
  <i type="int" name="LDAUTYPE">     2</i>
  <v type="int" name="LDAUL">     3    -1</v>
  <v name="LDAUU">      5.00000000      0.00000000</v>
  <v name="LDAUJ">      0.00000000      0.00000000</v>
 </incar>
 <primitive_cell>
  <structure name="primitive_cell" >
   <crystal>
    <varray name="basis" >
     <v>      11.59820000       0.00000000       0.00000000 </v>
     <v>      -5.79910000      10.04433584       0.00000000 </v>
     <v>       0.00000000       0.00000000      21.04820000 </v>
    </varray>
    <i name="volume">   2452.03565189 </i>
    <varray name="rec_basis" >
     <v>       0.08622028       0.04977930       0.00000000 </v>
     <v>       0.00000000       0.09955860       0.00000000 </v>
     <v>       0.00000000       0.00000000       0.04751000 </v>
    </varray>
   </crystal>
   <varray name="positions" >
    <v>       0.00000000       0.00000000       0.45993000 </v>
    <v>       0.22222000       0.11111000       0.30996000 </v>
    <v>       0.11111000       0.22222000       0.15999000 </v>
    <v>       0.33333000       0.00000000       0.45993000 </v>
    <v>       0.55556000       0.11111000       0.30996000 </v>
    <v>       0.44444000       0.22222000       0.15999000 </v>
    <v>       0.66667000       0.00000000       0.45993000 </v>
    <v>       0.88889000       0.11111000       0.30996000 </v>
    <v>       0.77778000       0.22222000       0.15999000 </v>
    <v>       1.00000000       0.33333000       0.45993000 </v>
    <v>       0.22222000       0.44444000       0.30996000 </v>
    <v>       0.11111000       0.55556000       0.15999000 </v>
    <v>       0.33333000       0.33333000       0.45993000 </v>
    <v>       0.55556000       0.44444000       0.30996000 </v>
    <v>       0.44444000       0.55556000       0.15999000 </v>
    <v>       0.66667000       0.33333000       0.45993000 </v>
    <v>       0.88889000       0.44444000       0.30996000 </v>
    <v>       0.77778000       0.55556000       0.15999000 </v>
    <v>       1.00000000       0.66667000       0.45993000 </v>
    <v>       0.22222000       0.77778000       0.30996000 </v>
    <v>       0.11111000       0.88889000       0.15999000 </v>
    <v>       0.33333000       0.66667000       0.45993000 </v>
    <v>       0.55556000       0.77778000       0.30996000 </v>
    <v>       0.44444000       0.88889000       0.15999000 </v>
    <v>       0.66667000       0.66667000       0.45993000 </v>
    <v>       0.88889000       0.77778000       0.30996000 </v>
    <v>       0.77778000       0.88889000       0.15999000 </v>
    <v>       0.00000000       0.00000000       0.12250000 </v>
    <v>       0.11111000       0.22222000       0.27247000 </v>
    <v>       0.22222000       0.11111000       0.42244000 </v>
    <v>       0.11111000       0.22222000       0.04751000 </v>
    <v>       0.11111000       0.22222000       0.49742000 </v>
    <v>       0.00000000       0.00000000       0.34745000 </v>
    <v>       0.22222000       0.11111000       0.19748000 </v>
    <v>       0.33333000       0.00000000       0.12250000 </v>
    <v>       0.44444000       0.22222000       0.27247000 </v>
    <v>       0.55556000       0.11111000       0.42244000 </v>
    <v>       0.44444000       0.22222000       0.04751000 </v>
    <v>       0.44444000       0.22222000       0.49742000 </v>
    <v>       0.33333000       0.00000000       0.34745000 </v>
    <v>       0.55556000       0.11111000       0.19748000 </v>
    <v>       0.66667000       0.00000000       0.12250000 </v>
    <v>       0.77778000       0.22222000       0.27247000 </v>
    <v>       0.88889000       0.11111000       0.42244000 </v>
    <v>       0.77778000       0.22222000       0.04751000 </v>
    <v>       0.77778000       0.22222000       0.49742000 </v>
    <v>       0.66667000       0.00000000       0.34745000 </v>
    <v>       0.88889000       0.11111000       0.19748000 </v>
    <v>       1.00000000       0.33333000       0.12250000 </v>
    <v>       0.11111000       0.55556000       0.27247000 </v>
    <v>       0.22222000       0.44444000       0.42244000 </v>
    <v>       0.11111000       0.55556000       0.04751000 </v>
    <v>       0.11111000       0.55556000       0.49742000 </v>
    <v>       1.00000000       0.33333000       0.34745000 </v>
    <v>       0.22222000       0.44444000       0.19748000 </v>
    <v>       0.33333000       0.33333000       0.12250000 </v>
    <v>       0.44444000       0.55556000       0.27247000 </v>
    <v>       0.55556000       0.44444000       0.42244000 </v>
    <v>       0.44444000       0.55556000       0.04751000 </v>
    <v>       0.44444000       0.55556000       0.49742000 </v>
    <v>       0.33333000       0.33333000       0.34745000 </v>
    <v>       0.55556000       0.44444000       0.19748000 </v>
    <v>       0.66667000       0.33333000       0.12250000 </v>
    <v>       0.77778000       0.55556000       0.27247000 </v>
    <v>       0.88889000       0.44444000       0.42244000 </v>
    <v>       0.77778000       0.55556000       0.04751000 </v>
    <v>       0.77778000       0.55556000       0.49742000 </v>
    <v>       0.66667000       0.33333000       0.34745000 </v>
    <v>       0.88889000       0.44444000       0.19748000 </v>
    <v>       1.00000000       0.66667000       0.12250000 </v>
    <v>       0.11111000       0.88889000       0.27247000 </v>
    <v>       0.22222000       0.77778000       0.42244000 </v>
    <v>       0.11111000       0.88889000       0.04751000 </v>
    <v>       0.11111000       0.88889000       0.49742000 </v>
    <v>       1.00000000       0.66667000       0.34745000 </v>
    <v>       0.22222000       0.77778000       0.19748000 </v>
    <v>       0.33333000       0.66667000       0.12250000 </v>
    <v>       0.44444000       0.88889000       0.27247000 </v>
    <v>       0.55556000       0.77778000       0.42244000 </v>
    <v>       0.44444000       0.88889000       0.04751000 </v>
    <v>       0.44444000       0.88889000       0.49742000 </v>
    <v>       0.33333000       0.66667000       0.34745000 </v>
    <v>       0.55556000       0.77778000       0.19748000 </v>
    <v>       0.66667000       0.66667000       0.12250000 </v>
    <v>       0.77778000       0.88889000       0.27247000 </v>
    <v>       0.88889000       0.77778000       0.42244000 </v>
    <v>       0.77778000       0.88889000       0.04751000 </v>
    <v>       0.77778000       0.88889000       0.49742000 </v>
    <v>       0.66667000       0.66667000       0.34745000 </v>
    <v>       0.88889000       0.77778000       0.19748000 </v>
   </varray>
  </structure>
  <varray name="primitive_index" >
   <v type="int" >        1 </v>
   <v type="int" >        2 </v>
   <v type="int" >        3 </v>
   <v type="int" >        4 </v>
   <v type="int" >        5 </v>
   <v type="int" >        6 </v>
   <v type="int" >        7 </v>
   <v type="int" >        8 </v>
   <v type="int" >        9 </v>
   <v type="int" >       10 </v>
   <v type="int" >       11 </v>
   <v type="int" >       12 </v>
   <v type="int" >       13 </v>
   <v type="int" >       14 </v>
   <v type="int" >       15 </v>
   <v type="int" >       16 </v>
   <v type="int" >       17 </v>
   <v type="int" >       18 </v>
   <v type="int" >       19 </v>
   <v type="int" >       20 </v>
   <v type="int" >       21 </v>
   <v type="int" >       22 </v>
   <v type="int" >       23 </v>
   <v type="int" >       24 </v>
   <v type="int" >       25 </v>
   <v type="int" >       26 </v>
   <v type="int" >       27 </v>
   <v type="int" >       28 </v>
   <v type="int" >       29 </v>
   <v type="int" >       30 </v>
   <v type="int" >       31 </v>
   <v type="int" >       32 </v>
   <v type="int" >       33 </v>
   <v type="int" >       34 </v>
   <v type="int" >       35 </v>
   <v type="int" >       36 </v>
   <v type="int" >       37 </v>
   <v type="int" >       38 </v>
   <v type="int" >       39 </v>
   <v type="int" >       40 </v>
   <v type="int" >       41 </v>
   <v type="int" >       42 </v>
   <v type="int" >       43 </v>
   <v type="int" >       44 </v>
   <v type="int" >       45 </v>
   <v type="int" >       46 </v>
   <v type="int" >       47 </v>
   <v type="int" >       48 </v>
   <v type="int" >       49 </v>
   <v type="int" >       50 </v>
   <v type="int" >       51 </v>
   <v type="int" >       52 </v>
   <v type="int" >       53 </v>
   <v type="int" >       54 </v>
   <v type="int" >       55 </v>
   <v type="int" >       56 </v>
   <v type="int" >       57 </v>
   <v type="int" >       58 </v>
   <v type="int" >       59 </v>
   <v type="int" >       60 </v>
   <v type="int" >       61 </v>
   <v type="int" >       62 </v>
   <v type="int" >       63 </v>
   <v type="int" >       64 </v>
   <v type="int" >       65 </v>
   <v type="int" >       66 </v>
   <v type="int" >       67 </v>
   <v type="int" >       68 </v>
   <v type="int" >       69 </v>
   <v type="int" >       70 </v>
   <v type="int" >       71 </v>
   <v type="int" >       72 </v>
   <v type="int" >       73 </v>
   <v type="int" >       74 </v>
   <v type="int" >       75 </v>
   <v type="int" >       76 </v>
   <v type="int" >       77 </v>
   <v type="int" >       78 </v>
   <v type="int" >       79 </v>
   <v type="int" >       80 </v>
   <v type="int" >       81 </v>
   <v type="int" >       82 </v>
   <v type="int" >       83 </v>
   <v type="int" >       84 </v>
   <v type="int" >       85 </v>
   <v type="int" >       86 </v>
   <v type="int" >       87 </v>
   <v type="int" >       88 </v>
   <v type="int" >       89 </v>
   <v type="int" >       90 </v>
  </varray>
 </primitive_cell>
 <kpoints>
  <generation param="Monkhorst-Pack">
   <v type="int" name="divisions">       3        3        1 </v>
   <v name="usershift">      0.00000000       0.00000000       0.00000000 </v>
   <v name="genvec1">      0.33333333      -0.00000000       0.00000000 </v>
   <v name="genvec2">      0.00000000       0.33333333       0.00000000 </v>
   <v name="genvec3">      0.00000000       0.00000000       1.00000000 </v>
   <v name="shift">      0.00000000       0.00000000       0.00000000 </v>
  </generation>
  <varray name="kpointlist" >
   <v>       0.00000000       0.00000000       0.00000000 </v>
   <v>       0.33333333      -0.00000000       0.00000000 </v>
   <v>      -0.33333333       0.33333333       0.00000000 </v>
   <v>       0.33333333       0.33333333       0.00000000 </v>
  </varray>
  <varray name="weights" >
   <v>       0.11111111 </v>
   <v>       0.44444444 </v>
   <v>       0.22222222 </v>
   <v>       0.22222222 </v>
  </varray>
 </kpoints>
 <parameters>
  <separator name="general" >
   <i type="string" name="SYSTEM">unknown system</i>
   <i type="logical" name="LCOMPAT"> F  </i>
  </separator>
  <separator name="electronic" >
   <i type="string" name="PREC">accura</i>
   <i name="ENMAX">    520.00000000</i>
   <i name="ENAUG">    605.39200000</i>
   <i name="EDIFF">      0.00000100</i>
   <i type="int" name="IALGO">    38</i>
   <i type="int" name="IWAVPR">    11</i>
   <i type="int" name="NBANDS">   480</i>
   <i type="int" name="NBANDSLOW">    -1</i>
   <i type="int" name="NBANDSHIGH">    -1</i>
   <i name="NELECT">    702.00000000</i>
   <i type="int" name="TURBO">     0</i>
   <i type="int" name="IRESTART">     0</i>
   <i type="int" name="NREBOOT">     0</i>
   <i type="int" name="NMIN">     0</i>
   <i name="EREF">      0.00000000</i>
   <separator name="electronic smearing" >
    <i type="int" name="ISMEAR">     0</i>
    <i name="SIGMA">      0.05000000</i>
    <i name="KSPACING">      0.50000000</i>
    <i type="logical" name="KGAMMA"> T  </i>
    <i type="logical" name="KBLOWUP"> T  </i>
   </separator>
   <separator name="electronic projectors" >
    <i type="logical" name="LREAL"> F  </i>
    <v name="ROPT">      0.00000000      0.00000000</v>
    <i type="int" name="LMAXPAW">  -100</i>
    <i type="int" name="LMAXMIX">     6</i>
    <i type="logical" name="NLSPLINE"> F  </i>
   </separator>
   <separator name="electronic startup" >
    <i type="int" name="ISTART">     0</i>
    <i type="int" name="ICHARG">     2</i>
    <i type="int" name="INIWAV">     1</i>
   </separator>
   <separator name="electronic spin" >
    <i type="int" name="ISPIN">     2</i>
    <i type="logical" name="LNONCOLLINEAR"> F  </i>
    <v name="MAGMOM">      1.00000000      1.00000000      1.00000000      1.00000000      1.00000000      1.00000000      1.00000000      1.00000000      1.00000000      1.00000000      1.00000000      1.00000000      1.00000000      1.00000000      1.00000000      1.00000000      1.00000000      1.00000000      1.00000000      1.00000000
      1.00000000      1.00000000      1.00000000      1.00000000      1.00000000      1.00000000      1.00000000      0.60000000      0.60000000      0.60000000      0.60000000      0.60000000      0.60000000      0.60000000      0.60000000      0.60000000      0.60000000      0.60000000      0.60000000      0.60000000
      0.60000000      0.60000000      0.60000000      0.60000000      0.60000000      0.60000000      0.60000000      0.60000000      0.60000000      0.60000000      0.60000000      0.60000000      0.60000000      0.60000000      0.60000000      0.60000000      0.60000000      0.60000000      0.60000000      0.60000000
      0.60000000      0.60000000      0.60000000      0.60000000      0.60000000      0.60000000      0.60000000      0.60000000      0.60000000      0.60000000      0.60000000      0.60000000      0.60000000      0.60000000      0.60000000      0.60000000      0.60000000      0.60000000      0.60000000      0.60000000
      0.60000000      0.60000000      0.60000000      0.60000000      0.60000000      0.60000000      0.60000000      0.60000000      0.60000000      0.60000000</v>
    <i name="NUPDOWN">     -1.00000000</i>
    <i type="logical" name="LSORBIT"> F  </i>
    <v name="SAXIS">      0.00000000      0.00000000      1.00000000</v>
    <i type="logical" name="LSPIRAL"> F  </i>
    <v name="QSPIRAL">      0.00000000      0.00000000      0.00000000</v>
    <i type="logical" name="LZEROZ"> F  </i>
   </separator>
   <separator name="electronic exchange-correlation" >
    <i type="logical" name="LASPH"> T  </i>
   </separator>
   <separator name="electronic convergence" >
    <i type="int" name="NELM">    90</i>
    <i type="int" name="NELMDL">     0</i>
    <i type="int" name="NELMIN">     6</i>
    <i name="ENINI">    520.00000000</i>
    <separator name="electronic convergence detail" >
     <i type="logical" name="LDIAG"> T  </i>
     <i type="logical" name="LSUBROT"> F  </i>
     <i name="WEIMIN">      0.00100000</i>
     <i name="EBREAK">      0.00000000</i>
     <i name="DEPER">      0.30000000</i>
     <i type="int" name="NRMM">     4</i>
     <i name="TIME">      0.40000000</i>
    </separator>
   </separator>
   <separator name="electronic mixer" >
    <i name="AMIX">      0.40000000</i>
    <i name="BMIX">      1.00000000</i>
    <i name="AMIN">      0.10000000</i>
    <i name="AMIX_MAG">      1.60000000</i>
    <i name="BMIX_MAG">      1.00000000</i>
    <separator name="electronic mixer details" >
     <i type="int" name="IMIX">     4</i>
     <i type="logical" name="MIXFIRST"> F  </i>
     <i type="int" name="MAXMIX">   -45</i>
     <i name="WC">    100.00000000</i>
     <i type="int" name="INIMIX">     1</i>
     <i type="int" name="MIXPRE">     1</i>
     <i type="int" name="MREMOVE">     5</i>
    </separator>
   </separator>
   <separator name="electronic dipolcorrection" >
    <i type="logical" name="LDIPOL"> F  </i>
    <i type="logical" name="LMONO"> F  </i>
    <i type="int" name="IDIPOL">     0</i>
    <i name="EPSILON">      1.00000000</i>
    <v name="DIPOL">   -100.00000000   -100.00000000   -100.00000000</v>
    <i name="EFIELD">      0.00000000</i>
    <i type="logical" name="LVACPOTAV"> F  </i>
   </separator>
  </separator>
  <separator name="grids" >
   <i type="int" name="NGX">    90</i>
   <i type="int" name="NGY">    90</i>
   <i type="int" name="NGZ">   160</i>
   <i type="int" name="NGXF">   180</i>
   <i type="int" name="NGYF">   180</i>
   <i type="int" name="NGZF">   320</i>
   <i type="logical" name="ADDGRID"> T  </i>
  </separator>
  <separator name="ionic" >
   <i type="int" name="NSW">   300</i>
   <i type="int" name="IBRION">     2</i>
   <i type="int" name="MDALGO">     0</i>
   <i type="int" name="ISIF">     2</i>
   <i name="PSTRESS">      0.00000000</i>
   <i name="EDIFFG">     -0.02000000</i>
   <i type="int" name="NFREE">     1</i>
   <i name="POTIM">      0.50000000</i>
   <i name="SMASS">     -3.00000000</i>
   <i name="SCALEE">      1.00000000</i>
  </separator>
  <separator name="ionic md" >
   <i name="TEBEG">      0.00010000</i>
   <i name="TEEND">      0.00010000</i>
   <i type="int" name="NBLOCK">     1</i>
   <i type="int" name="KBLOCK">   300</i>
   <i type="int" name="NPACO">   256</i>
   <i name="APACO">     10.00000000</i>
  </separator>
  <separator name="symmetry" >
   <i type="int" name="ISYM">     2</i>
   <i name="SYMPREC">      0.00001000</i>
  </separator>
  <separator name="dos" >
   <i type="int" name="LORBIT">     0</i>
   <v name="RWIGS">     -1.00000000     -1.00000000</v>
   <i type="int" name="NEDOS">   301</i>
   <i name="EMIN">     10.00000000</i>
   <i name="EMAX">    -10.00000000</i>
   <i name="EFERMI">      0.00000000</i>
  </separator>
  <separator name="writing" >
   <i type="int" name="NWRITE">     2</i>
   <i type="logical" name="LWAVE"> F  </i>
   <i type="logical" name="LDOWNSAMPLE"> F  </i>
   <i type="logical" name="LCHARG"> F  </i>
   <i type="logical" name="LPARD"> F  </i>
   <i type="logical" name="LVTOT"> F  </i>
   <i type="logical" name="LVHAR"> F  </i>
   <i type="logical" name="LELF"> F  </i>
   <i type="logical" name="LOPTICS"> F  </i>
   <v name="STM">      0.00000000      0.00000000      0.00000000      0.00000000      0.00000000      0.00000000      0.00000000</v>
  </separator>
  <separator name="performance" >
   <i type="int" name="NPAR">    48</i>
   <i type="int" name="NSIM">     4</i>
   <i type="int" name="NBLK">    -1</i>
   <i type="logical" name="LPLANE"> T  </i>
   <i type="logical" name="LSCALAPACK"> T  </i>
   <i type="logical" name="LSCAAWARE"> T  </i>
   <i type="logical" name="LSCALU"> F  </i>
   <i type="logical" name="LASYNC"> F  </i>
   <i type="logical" name="LORBITALREAL"> F  </i>
  </separator>
  <separator name="miscellaneous" >
   <i type="int" name="IDIOT">     3</i>
   <i type="int" name="PHON_NSTRUCT">    -1</i>
   <i type="logical" name="LMUSIC"> F  </i>
   <v name="POMASS">    140.11500000     16.00000000</v>
   <v name="DARWINR">      0.00000000      0.00000000</v>
   <v name="DARWINV">      1.00000000      1.00000000</v>
   <i type="logical" name="LCORR"> T  </i>
  </separator>
  <i type="logical" name="GGA_COMPAT"> T  </i>
  <i type="logical" name="LBERRY"> F  </i>
  <i type="int" name="ICORELEVEL">     0</i>
  <i type="logical" name="LDAU"> T  </i>
  <v type="int" name="LDAUTYPE">     2</v>
  <v type="int" name="LDAUL">     3</v>
  <v name="LDAUU">      5.00000000</v>
  <v name="LDAUJ">      0.00000000</v>
  <i type="int" name="LDAUPRINT">     0</i>
  <i type="int" name="I_CONSTRAINED_M">     0</i>
  <separator name="electronic exchange-correlation" >
   <i type="string" name="GGA    ">PE</i>
   <i type="string" name="XC_C">1</i>
   <i type="int" name="VOSKOWN">     0</i>
   <i type="logical" name="LHFCALC"> F  </i>
   <i type="string" name="PRECFOCK"></i>
   <i type="logical" name="LSYMGRAD"> F  </i>
   <i type="logical" name="LHFONE"> F  </i>
   <i type="logical" name="LRHFCALC"> F  </i>
   <i type="logical" name="LTHOMAS"> F  </i>
   <i type="logical" name="LMODELHF"> F  </i>
   <i type="logical" name="LFOCKACE"> F  </i>
   <i name="ENCUT4O">     -1.00000000</i>
   <i type="int" name="EXXOEP">     0</i>
   <i type="int" name="FOURORBIT">     0</i>
   <i name="AEXX">      0.00000000</i>
   <i name="HFALPHA">      0.00000000</i>
   <i name="MCALPHA">      0.00000000</i>
   <i name="ALDAX">      1.00000000</i>
   <i name="AGGAX">      1.00000000</i>
   <i name="AMGGAX">      1.00000000</i>
   <i name="ALDAC">      1.00000000</i>
   <i name="AGGAC">      1.00000000</i>
   <i name="AMGGAC">      1.00000000</i>
   <i type="int" name="NKREDX">     1</i>
   <i type="int" name="NKREDY">     1</i>
   <i type="int" name="NKREDZ">     1</i>
   <i type="logical" name="SHIFTRED"> F  </i>
   <i type="logical" name="ODDONLY"> F  </i>
   <i type="logical" name="EVENONLY"> F  </i>
   <i type="int" name="LMAXFOCK">     0</i>
   <i type="int" name="NMAXFOCKAE">     0</i>
   <i type="logical" name="LFOCKAEDFT"> F  </i>
   <i name="HFSCREEN">      0.00000000</i>
   <i name="HFSCREENC">      0.00000000</i>
   <i type="int" name="NBANDSGWLOW">     0</i>
  </separator>
  <separator name="vdW DFT" >
   <i type="logical" name="LUSE_VDW"> F  </i>
   <i type="int" name="IVDW_NL">    -1</i>
   <i type="logical" name="LSPIN_VDW"> F  </i>
   <i name="ZAB_VDW">     -0.84910000</i>
   <i name="GAMMA_VDW">      1.39626340</i>
   <i name="ALPHA_VDW">      0.00000000</i>
   <i name="PARAM1">      0.12340000</i>
   <i name="PARAM2">      1.00000000</i>
   <i name="BPARAM">      6.30000000</i>
   <i name="CPARAM">      0.00930000</i>
  </separator>
  <separator name="model GW" >
   <i type="int" name="MODEL_GW">     0</i>
   <i name="MODEL_EPS0">     16.34690435</i>
   <i name="MODEL_ALPHA">      1.00000000</i>
  </separator>
  <separator name="linear response parameters" >
   <i type="logical" name="LEPSILON"> F  </i>
   <i type="logical" name="LRPA"> F  </i>
   <i type="logical" name="LNABLA"> F  </i>
   <i type="logical" name="LVEL"> F  </i>
   <i name="CSHIFT">      0.10000000</i>
   <i name="OMEGAMAX">     -1.00000000</i>
   <i name="DEG_THRESHOLD">      0.00200000</i>
   <i name="RTIME">     -0.10000000</i>
   <i name="WPLASMAI">      0.00000000</i>
   <v name="DFIELD">      0.00000000      0.00000000      0.00000000</v>
   <v name="WPLASMA">      0.00000000      0.00000000      0.00000000      0.00000000      0.00000000      0.00000000      0.00000000      0.00000000      0.00000000</v>
  </separator>
  <separator name="orbital magnetization" >
   <i type="logical" name="NUCIND"> F  </i>
   <v name="MAGPOS">      0.00000000      0.00000000      0.00000000</v>
   <i type="logical" name="LNICSALL"> T  </i>
   <i type="logical" name="ORBITALMAG"> F  </i>
   <i type="logical" name="LMAGBLOCH"> F  </i>
   <i type="logical" name="LCHIMAG"> F  </i>
   <i type="logical" name="LGAUGE"> T  </i>
   <i type="int" name="MAGATOM">     0</i>
   <v name="MAGDIPOL">      0.00000000      0.00000000      0.00000000</v>
   <v name="AVECCONST">      0.00000000      0.00000000      0.00000000</v>
  </separator>
  <separator name="response functions" >
   <i type="logical" name="LALL_IN_ONE"> F  </i>
   <i type="int" name="IALL_IN_ONE">    -1</i>
   <i type="int" name="NBANDS_WAVE">    -1</i>
   <i type="logical" name="LFINITE_TEMPERATURE"> F  </i>
   <i type="logical" name="LADDER"> F  </i>
   <i type="logical" name="LRPAFORCE"> F  </i>
   <i type="logical" name="LFXC"> F  </i>
   <i type="logical" name="LHARTREE"> T  </i>
   <i type="int" name="IBSE">     0</i>
   <v type="int" name="KPOINT">    -1     0     0     0</v>
   <i type="logical" name="LTCTC"> F  </i>
   <i type="logical" name="LTCTE"> F  </i>
   <i type="logical" name="LTETE"> F  </i>
   <i type="logical" name="LTRIPLET"> F  </i>
   <i type="logical" name="LFXCEPS"> F  </i>
   <i type="logical" name="LFXHEG"> F  </i>
   <i type="int" name="NATURALO">     2</i>
   <i type="logical" name="LHOLEGF"> F  </i>
   <i type="logical" name="L2ORDER"> F  </i>
   <i type="logical" name="LDMP1"> F  </i>
   <i type="logical" name="LMP2LT"> F  </i>
   <i type="logical" name="LSMP2LT"> F  </i>
   <i type="logical" name="LGWLF"> F  </i>
   <i name="ENCUTGW">     -1.60000002</i>
   <i name="ENCUTGWSOFT">     -1.60000002</i>
   <i name="ENCUTLF">     -1.00000000</i>
   <i type="logical" name="ESF_SPLINES"> F  </i>
   <i name="ESF_CONV">      0.01000000</i>
   <i type="int" name="ESF_NINTER">    15</i>
   <i type="int" name="LMAXMP2">    -1</i>
   <i name="SCISSOR">      0.00000000</i>
   <i type="int" name="NOMEGA">     0</i>
   <i type="int" name="NOMEGAR">     0</i>
   <i type="int" name="NBANDSGW">    -1</i>
   <i type="int" name="NBANDSO">    -1</i>
   <i type="int" name="NBANDSV">    -1</i>
   <i type="int" name="NELMGW">     1</i>
   <i type="int" name="NELMHF">     1</i>
   <i type="int" name="DIM">     3</i>
   <i type="int" name="IESPILON">     4</i>
   <i type="int" name="ANTIRES">     0</i>
   <i name="OMEGAMAX">    -30.00000000</i>
   <i name="OMEGAMIN">    -30.00000000</i>
   <i name="OMEGATL">   -200.00000000</i>
   <i type="int" name="OMEGAGRID">     0</i>
   <i name="CSHIFT">     -0.10000000</i>
   <i type="logical" name="LSELFENERGY"> F  </i>
   <i type="logical" name="LSPECTRAL"> F  </i>
   <i type="logical" name="LSPECTRALGW"> F  </i>
   <i type="logical" name="LSINGLES"> F  </i>
   <i type="logical" name="LFERMIGW"> F  </i>
   <i type="logical" name="ODDONLYGW"> F  </i>
   <i type="logical" name="EVENONLYGW"> F  </i>
   <i type="int" name="NKREDLFX">     1</i>
   <i type="int" name="NKREDLFY">     1</i>
   <i type="int" name="NKREDLFZ">     1</i>
   <i type="int" name="MAXMEM">  2800</i>
   <i type="int" name="TELESCOPE">     0</i>
   <i type="int" name="NTAUPAR">    -1</i>
   <i type="int" name="NOMEGAPAR">    -1</i>
   <i name="DAMP_NEWTON">      0.80000001</i>
   <i name="LAMBDA">      1.00000000</i>
  </separator>
  <separator name="External order field" >
   <i name="OFIELD_KAPPA">      0.00000000</i>
   <v name="OFIELD_K">      0.00000000      0.00000000      0.00000000</v>
   <i name="OFIELD_Q6_NEAR">      0.00000000</i>
   <i name="OFIELD_Q6_FAR">      0.00000000</i>
   <i name="OFIELD_A">      0.00000000</i>
  </separator>
  <separator name="optional k-points parameters" >
   <i type="int" name="KPOINTS_OPT_MODE">     1</i>
   <i type="logical" name="LKPOINTS_OPT"> F  </i>
  </separator>
 </parameters>
 <atominfo>
  <atoms>      90 </atoms>
  <types>       2 </types>
  <array name="atoms" >
   <dimension dim="1">ion</dimension>
   <field type="string">element</field>
   <field type="int">atomtype</field>
   <set>
    <rc><c>Ce</c><c>   1</c></rc>
    <rc><c>Ce</c><c>   1</c></rc>
    <rc><c>Ce</c><c>   1</c></rc>
    <rc><c>Ce</c><c>   1</c></rc>
    <rc><c>Ce</c><c>   1</c></rc>
    <rc><c>Ce</c><c>   1</c></rc>
    <rc><c>Ce</c><c>   1</c></rc>
    <rc><c>Ce</c><c>   1</c></rc>
    <rc><c>Ce</c><c>   1</c></rc>
    <rc><c>Ce</c><c>   1</c></rc>
    <rc><c>Ce</c><c>   1</c></rc>
    <rc><c>Ce</c><c>   1</c></rc>
    <rc><c>Ce</c><c>   1</c></rc>
    <rc><c>Ce</c><c>   1</c></rc>
    <rc><c>Ce</c><c>   1</c></rc>
    <rc><c>Ce</c><c>   1</c></rc>
    <rc><c>Ce</c><c>   1</c></rc>
    <rc><c>Ce</c><c>   1</c></rc>
    <rc><c>Ce</c><c>   1</c></rc>
    <rc><c>Ce</c><c>   1</c></rc>
    <rc><c>Ce</c><c>   1</c></rc>
    <rc><c>Ce</c><c>   1</c></rc>
    <rc><c>Ce</c><c>   1</c></rc>
    <rc><c>Ce</c><c>   1</c></rc>
    <rc><c>Ce</c><c>   1</c></rc>
    <rc><c>Ce</c><c>   1</c></rc>
    <rc><c>Ce</c><c>   1</c></rc>
    <rc><c>O </c><c>   2</c></rc>
    <rc><c>O </c><c>   2</c></rc>
    <rc><c>O </c><c>   2</c></rc>
    <rc><c>O </c><c>   2</c></rc>
    <rc><c>O </c><c>   2</c></rc>
    <rc><c>O </c><c>   2</c></rc>
    <rc><c>O </c><c>   2</c></rc>
    <rc><c>O </c><c>   2</c></rc>
    <rc><c>O </c><c>   2</c></rc>
    <rc><c>O </c><c>   2</c></rc>
    <rc><c>O </c><c>   2</c></rc>
    <rc><c>O </c><c>   2</c></rc>
    <rc><c>O </c><c>   2</c></rc>
    <rc><c>O </c><c>   2</c></rc>
    <rc><c>O </c><c>   2</c></rc>
    <rc><c>O </c><c>   2</c></rc>
    <rc><c>O </c><c>   2</c></rc>
    <rc><c>O </c><c>   2</c></rc>
    <rc><c>O </c><c>   2</c></rc>
    <rc><c>O </c><c>   2</c></rc>
    <rc><c>O </c><c>   2</c></rc>
    <rc><c>O </c><c>   2</c></rc>
    <rc><c>O </c><c>   2</c></rc>
    <rc><c>O </c><c>   2</c></rc>
    <rc><c>O </c><c>   2</c></rc>
    <rc><c>O </c><c>   2</c></rc>
    <rc><c>O </c><c>   2</c></rc>
    <rc><c>O </c><c>   2</c></rc>
    <rc><c>O </c><c>   2</c></rc>
    <rc><c>O </c><c>   2</c></rc>
    <rc><c>O </c><c>   2</c></rc>
    <rc><c>O </c><c>   2</c></rc>
    <rc><c>O </c><c>   2</c></rc>
    <rc><c>O </c><c>   2</c></rc>
    <rc><c>O </c><c>   2</c></rc>
    <rc><c>O </c><c>   2</c></rc>
    <rc><c>O </c><c>   2</c></rc>
    <rc><c>O </c><c>   2</c></rc>
    <rc><c>O </c><c>   2</c></rc>
    <rc><c>O </c><c>   2</c></rc>
    <rc><c>O </c><c>   2</c></rc>
    <rc><c>O </c><c>   2</c></rc>
    <rc><c>O </c><c>   2</c></rc>
    <rc><c>O </c><c>   2</c></rc>
    <rc><c>O </c><c>   2</c></rc>
    <rc><c>O </c><c>   2</c></rc>
    <rc><c>O </c><c>   2</c></rc>
    <rc><c>O </c><c>   2</c></rc>
    <rc><c>O </c><c>   2</c></rc>
    <rc><c>O </c><c>   2</c></rc>
    <rc><c>O </c><c>   2</c></rc>
    <rc><c>O </c><c>   2</c></rc>
    <rc><c>O </c><c>   2</c></rc>
    <rc><c>O </c><c>   2</c></rc>
    <rc><c>O </c><c>   2</c></rc>
    <rc><c>O </c><c>   2</c></rc>
    <rc><c>O </c><c>   2</c></rc>
    <rc><c>O </c><c>   2</c></rc>
    <rc><c>O </c><c>   2</c></rc>
    <rc><c>O </c><c>   2</c></rc>
    <rc><c>O </c><c>   2</c></rc>
    <rc><c>O </c><c>   2</c></rc>
    <rc><c>O </c><c>   2</c></rc>
   </set>
  </array>
  <array name="atomtypes" >
   <dimension dim="1">type</dimension>
   <field type="int">atomspertype</field>
   <field type="string">element</field>
   <field>mass</field>
   <field>valence</field>
   <field type="string">pseudopotential</field>
   <set>
    <rc><c>  27</c><c>Ce</c><c>    140.11500000</c><c>     12.00000000</c><c>  PAW_PBE Ce 23Dec2003                  </c></rc>
    <rc><c>  63</c><c>O </c><c>     16.00000000</c><c>      6.00000000</c><c>  PAW_PBE O 08Apr2002                   </c></rc>
   </set>
  </array>
 </atominfo>
 <structure name="initialpos" >
  <crystal>
   <varray name="basis" >
    <v>      11.59820000       0.00000000       0.00000000 </v>
    <v>      -5.79910000      10.04433584       0.00000000 </v>
    <v>       0.00000000       0.00000000      21.04820000 </v>
   </varray>
   <i name="volume">   2452.03565189 </i>
   <varray name="rec_basis" >
    <v>       0.08622028       0.04977930       0.00000000 </v>
    <v>       0.00000000       0.09955860       0.00000000 </v>
    <v>       0.00000000       0.00000000       0.04751000 </v>
   </varray>
  </crystal>
  <varray name="positions" >
   <v>       0.00000000       0.00000000       0.45993000 </v>
   <v>       0.22222000       0.11111000       0.30996000 </v>
   <v>       0.11111000       0.22222000       0.15999000 </v>
   <v>       0.33333000       0.00000000       0.45993000 </v>
   <v>       0.55556000       0.11111000       0.30996000 </v>
   <v>       0.44444000       0.22222000       0.15999000 </v>
   <v>       0.66667000       0.00000000       0.45993000 </v>
   <v>       0.88889000       0.11111000       0.30996000 </v>
   <v>       0.77778000       0.22222000       0.15999000 </v>
   <v>       0.00000000       0.33333000       0.45993000 </v>
   <v>       0.22222000       0.44444000       0.30996000 </v>
   <v>       0.11111000       0.55556000       0.15999000 </v>
   <v>       0.33333000       0.33333000       0.45993000 </v>
   <v>       0.55556000       0.44444000       0.30996000 </v>
   <v>       0.44444000       0.55556000       0.15999000 </v>
   <v>       0.66667000       0.33333000       0.45993000 </v>
   <v>       0.88889000       0.44444000       0.30996000 </v>
   <v>       0.77778000       0.55556000       0.15999000 </v>
   <v>       0.00000000       0.66667000       0.45993000 </v>
   <v>       0.22222000       0.77778000       0.30996000 </v>
   <v>       0.11111000       0.88889000       0.15999000 </v>
   <v>       0.33333000       0.66667000       0.45993000 </v>
   <v>       0.55556000       0.77778000       0.30996000 </v>
   <v>       0.44444000       0.88889000       0.15999000 </v>
   <v>       0.66667000       0.66667000       0.45993000 </v>
   <v>       0.88889000       0.77778000       0.30996000 </v>
   <v>       0.77778000       0.88889000       0.15999000 </v>
   <v>       0.00000000       0.00000000       0.12250000 </v>
   <v>       0.11111000       0.22222000       0.27247000 </v>
   <v>       0.22222000       0.11111000       0.42244000 </v>
   <v>       0.11111000       0.22222000       0.04751000 </v>
   <v>       0.11111000       0.22222000       0.49742000 </v>
   <v>       0.00000000       0.00000000       0.34745000 </v>
   <v>       0.22222000       0.11111000       0.19748000 </v>
   <v>       0.33333000       0.00000000       0.12250000 </v>
   <v>       0.44444000       0.22222000       0.27247000 </v>
   <v>       0.55556000       0.11111000       0.42244000 </v>
   <v>       0.44444000       0.22222000       0.04751000 </v>
   <v>       0.44444000       0.22222000       0.49742000 </v>
   <v>       0.33333000       0.00000000       0.34745000 </v>
   <v>       0.55556000       0.11111000       0.19748000 </v>
   <v>       0.66667000       0.00000000       0.12250000 </v>
   <v>       0.77778000       0.22222000       0.27247000 </v>
   <v>       0.88889000       0.11111000       0.42244000 </v>
   <v>       0.77778000       0.22222000       0.04751000 </v>
   <v>       0.77778000       0.22222000       0.49742000 </v>
   <v>       0.66667000       0.00000000       0.34745000 </v>
   <v>       0.88889000       0.11111000       0.19748000 </v>
   <v>       0.00000000       0.33333000       0.12250000 </v>
   <v>       0.11111000       0.55556000       0.27247000 </v>
   <v>       0.22222000       0.44444000       0.42244000 </v>
   <v>       0.11111000       0.55556000       0.04751000 </v>
   <v>       0.11111000       0.55556000       0.49742000 </v>
   <v>       0.00000000       0.33333000       0.34745000 </v>
   <v>       0.22222000       0.44444000       0.19748000 </v>
   <v>       0.33333000       0.33333000       0.12250000 </v>
   <v>       0.44444000       0.55556000       0.27247000 </v>
   <v>       0.55556000       0.44444000       0.42244000 </v>
   <v>       0.44444000       0.55556000       0.04751000 </v>
   <v>       0.44444000       0.55556000       0.49742000 </v>
   <v>       0.33333000       0.33333000       0.34745000 </v>
   <v>       0.55556000       0.44444000       0.19748000 </v>
   <v>       0.66667000       0.33333000       0.12250000 </v>
   <v>       0.77778000       0.55556000       0.27247000 </v>
   <v>       0.88889000       0.44444000       0.42244000 </v>
   <v>       0.77778000       0.55556000       0.04751000 </v>
   <v>       0.77778000       0.55556000       0.49742000 </v>
   <v>       0.66667000       0.33333000       0.34745000 </v>
   <v>       0.88889000       0.44444000       0.19748000 </v>
   <v>       0.00000000       0.66667000       0.12250000 </v>
   <v>       0.11111000       0.88889000       0.27247000 </v>
   <v>       0.22222000       0.77778000       0.42244000 </v>
   <v>       0.11111000       0.88889000       0.04751000 </v>
   <v>       0.11111000       0.88889000       0.49742000 </v>
   <v>       0.00000000       0.66667000       0.34745000 </v>
   <v>       0.22222000       0.77778000       0.19748000 </v>
   <v>       0.33333000       0.66667000       0.12250000 </v>
   <v>       0.44444000       0.88889000       0.27247000 </v>
   <v>       0.55556000       0.77778000       0.42244000 </v>
   <v>       0.44444000       0.88889000       0.04751000 </v>
   <v>       0.44444000       0.88889000       0.49742000 </v>
   <v>       0.33333000       0.66667000       0.34745000 </v>
   <v>       0.55556000       0.77778000       0.19748000 </v>
   <v>       0.66667000       0.66667000       0.12250000 </v>
   <v>       0.77778000       0.88889000       0.27247000 </v>
   <v>       0.88889000       0.77778000       0.42244000 </v>
   <v>       0.77778000       0.88889000       0.04751000 </v>
   <v>       0.77778000       0.88889000       0.49742000 </v>
   <v>       0.66667000       0.66667000       0.34745000 </v>
   <v>       0.88889000       0.77778000       0.19748000 </v>
  </varray>
  <varray name="selective"  type="logical" >
   <v type="logical" >  T  T  T </v>
   <v type="logical" >  T  T  T </v>
   <v type="logical" >  F  F  F </v>
   <v type="logical" >  T  T  T </v>
   <v type="logical" >  T  T  T </v>
   <v type="logical" >  F  F  F </v>
   <v type="logical" >  T  T  T </v>
   <v type="logical" >  T  T  T </v>
   <v type="logical" >  F  F  F </v>
   <v type="logical" >  T  T  T </v>
   <v type="logical" >  T  T  T </v>
   <v type="logical" >  F  F  F </v>
   <v type="logical" >  T  T  T </v>
   <v type="logical" >  T  T  T </v>
   <v type="logical" >  F  F  F </v>
   <v type="logical" >  T  T  T </v>
   <v type="logical" >  T  T  T </v>
   <v type="logical" >  F  F  F </v>
   <v type="logical" >  T  T  T </v>
   <v type="logical" >  T  T  T </v>
   <v type="logical" >  F  F  F </v>
   <v type="logical" >  T  T  T </v>
   <v type="logical" >  T  T  T </v>
   <v type="logical" >  F  F  F </v>
   <v type="logical" >  T  T  T </v>
   <v type="logical" >  T  T  T </v>
   <v type="logical" >  F  F  F </v>
   <v type="logical" >  F  F  F </v>
   <v type="logical" >  T  T  T </v>
   <v type="logical" >  T  T  T </v>
   <v type="logical" >  F  F  F </v>
   <v type="logical" >  T  T  T </v>
   <v type="logical" >  T  T  T </v>
   <v type="logical" >  F  F  F </v>
   <v type="logical" >  F  F  F </v>
   <v type="logical" >  T  T  T </v>
   <v type="logical" >  T  T  T </v>
   <v type="logical" >  F  F  F </v>
   <v type="logical" >  T  T  T </v>
   <v type="logical" >  T  T  T </v>
   <v type="logical" >  F  F  F </v>
   <v type="logical" >  F  F  F </v>
   <v type="logical" >  T  T  T </v>
   <v type="logical" >  T  T  T </v>
   <v type="logical" >  F  F  F </v>
   <v type="logical" >  T  T  T </v>
   <v type="logical" >  T  T  T </v>
   <v type="logical" >  F  F  F </v>
   <v type="logical" >  F  F  F </v>
   <v type="logical" >  T  T  T </v>
   <v type="logical" >  T  T  T </v>
   <v type="logical" >  F  F  F </v>
   <v type="logical" >  T  T  T </v>
   <v type="logical" >  T  T  T </v>
   <v type="logical" >  F  F  F </v>
   <v type="logical" >  F  F  F </v>
   <v type="logical" >  T  T  T </v>
   <v type="logical" >  T  T  T </v>
   <v type="logical" >  F  F  F </v>
   <v type="logical" >  T  T  T </v>
   <v type="logical" >  T  T  T </v>
   <v type="logical" >  F  F  F </v>
   <v type="logical" >  F  F  F </v>
   <v type="logical" >  T  T  T </v>
   <v type="logical" >  T  T  T </v>
   <v type="logical" >  F  F  F </v>
   <v type="logical" >  T  T  T </v>
   <v type="logical" >  T  T  T </v>
   <v type="logical" >  F  F  F </v>
   <v type="logical" >  F  F  F </v>
   <v type="logical" >  T  T  T </v>
   <v type="logical" >  T  T  T </v>
   <v type="logical" >  F  F  F </v>
   <v type="logical" >  T  T  T </v>
   <v type="logical" >  T  T  T </v>
   <v type="logical" >  F  F  F </v>
   <v type="logical" >  F  F  F </v>
   <v type="logical" >  T  T  T </v>
   <v type="logical" >  T  T  T </v>
   <v type="logical" >  F  F  F </v>
   <v type="logical" >  T  T  T </v>
   <v type="logical" >  T  T  T </v>
   <v type="logical" >  F  F  F </v>
   <v type="logical" >  F  F  F </v>
   <v type="logical" >  T  T  T </v>
   <v type="logical" >  T  T  T </v>
   <v type="logical" >  F  F  F </v>
   <v type="logical" >  T  T  T </v>
   <v type="logical" >  T  T  T </v>
   <v type="logical" >  F  F  F </v>
  </varray>
  <nose>
   <v>      -3.00000000       0.00000000       0.00010000       0.00010000 </v>
  </nose>
 </structure>
 <calculation>
  <scstep>
   <time name="dav">   17.19   17.30</time>
   <time name="total">   18.56   18.71</time>
   <energy>
    <i name="alphaZ">   1773.46029266 </i>
    <i name="ewald"> 131609.86876791 </i>
    <i name="hartreedc">-182936.93874816 </i>
    <i name="XCdc">   1882.60925763 </i>
    <i name="pawpsdc">  44800.63067340 </i>
    <i name="pawaedc"> -44254.60233968 </i>
    <i name="eentropy">     -0.03318037 </i>
    <i name="bandstr">   2544.46849700 </i>
    <i name="atom">  55941.51886831 </i>
    <i name="e_fr_energy">  11360.98208871 </i>
    <i name="e_wo_entrp">  11361.01526908 </i>
    <i name="e_0_energy">  11360.99867890 </i>
   </energy>
  </scstep>
  <scstep>
   <time name="dav">   19.85   19.86</time>
   <time name="total">   19.85   19.86</time>
   <energy>
    <i name="e_fr_energy">   3365.87816380 </i>
    <i name="e_wo_entrp">   3366.05621600 </i>
    <i name="e_0_energy">   3365.96718990 </i>
   </energy>
  </scstep>
  <scstep>
   <time name="dav">   22.77   22.78</time>
   <time name="total">   22.77   22.78</time>
   <energy>
    <i name="e_fr_energy">   -285.76299744 </i>
    <i name="e_wo_entrp">   -285.75407867 </i>
    <i name="e_0_energy">   -285.75853806 </i>
   </energy>
  </scstep>
  <scstep>
   <time name="dav">   24.44   24.45</time>
   <time name="total">   24.44   24.45</time>
   <energy>
    <i name="e_fr_energy">   -810.98000822 </i>
    <i name="e_wo_entrp">   -810.94150341 </i>
    <i name="e_0_energy">   -810.96075581 </i>
   </energy>
  </scstep>
  <scstep>
   <time name="dav">   27.15   27.16</time>
   <time name="total">   28.22   28.24</time>
   <energy>
    <i name="e_fr_energy">   -837.86960492 </i>
    <i name="e_wo_entrp">   -837.86959692 </i>
    <i name="e_0_energy">   -837.86960092 </i>
   </energy>
  </scstep>
  <scstep>
   <time name="dav">   21.70   21.71</time>
   <time name="total">   24.03   24.04</time>
   <energy>
    <i name="e_fr_energy">   -646.28658249 </i>
    <i name="e_wo_entrp">   -646.24167229 </i>
    <i name="e_0_energy">   -646.26412739 </i>
   </energy>
  </scstep>
  <scstep>
   <time name="dav">   27.21   27.22</time>
   <time name="total">   29.52   29.53</time>
   <energy>
    <i name="e_fr_energy">   -673.19403412 </i>
    <i name="e_wo_entrp">   -673.19403412 </i>
    <i name="e_0_energy">   -673.19403412 </i>
   </energy>
  </scstep>
  <scstep>
   <time name="dav">   25.64   25.65</time>
   <time name="total">   27.95   27.96</time>
   <energy>
    <i name="e_fr_energy">   -678.94404416 </i>
    <i name="e_wo_entrp">   -678.94404416 </i>
    <i name="e_0_energy">   -678.94404416 </i>
   </energy>
  </scstep>
  <scstep>
   <time name="dav">   23.28   23.29</time>
   <time name="total">   25.60   25.62</time>
   <energy>
    <i name="e_fr_energy">   -647.54314608 </i>
    <i name="e_wo_entrp">   -647.39109002 </i>
    <i name="e_0_energy">   -647.46711805 </i>
   </energy>
  </scstep>
  <scstep>
   <time name="dav">   27.40   27.41</time>
   <time name="total">   29.71   29.73</time>
   <energy>
    <i name="e_fr_energy">   -651.44073250 </i>
    <i name="e_wo_entrp">   -651.44073250 </i>
    <i name="e_0_energy">   -651.44073250 </i>
   </energy>
  </scstep>
  <scstep>
   <time name="dav">   27.23   27.24</time>
   <time name="total">   29.56   29.57</time>
   <energy>
    <i name="e_fr_energy">   -652.56682283 </i>
    <i name="e_wo_entrp">   -652.56682283 </i>
    <i name="e_0_energy">   -652.56682283 </i>
   </energy>
  </scstep>
  <scstep>
   <time name="dav">   29.08   29.10</time>
   <time name="total">   31.42   31.44</time>
   <energy>
    <i name="e_fr_energy">   -651.28639332 </i>
    <i name="e_wo_entrp">   -651.28639332 </i>
    <i name="e_0_energy">   -651.28639332 </i>
   </energy>
  </scstep>
  <scstep>
   <time name="dav">   25.53   25.54</time>
   <time name="total">   27.85   27.86</time>
   <energy>
    <i name="e_fr_energy">   -655.86489286 </i>
    <i name="e_wo_entrp">   -655.86489286 </i>
    <i name="e_0_energy">   -655.86489286 </i>
   </energy>
  </scstep>
  <scstep>
   <time name="dav">   25.42   25.43</time>
   <time name="total">   27.74   27.76</time>
   <energy>
    <i name="e_fr_energy">   -660.38164863 </i>
    <i name="e_wo_entrp">   -660.38164863 </i>
    <i name="e_0_energy">   -660.38164863 </i>
   </energy>
  </scstep>
  <scstep>
   <time name="dav">   22.58   22.59</time>
   <time name="total">   24.90   24.91</time>
   <energy>
    <i name="e_fr_energy">   -664.82481189 </i>
    <i name="e_wo_entrp">   -664.82481189 </i>
    <i name="e_0_energy">   -664.82481189 </i>
   </energy>
  </scstep>
  <scstep>
   <time name="dav">   24.67   24.68</time>
   <time name="total">   26.99   27.01</time>
   <energy>
    <i name="e_fr_energy">   -667.06809168 </i>
    <i name="e_wo_entrp">   -667.06809168 </i>
    <i name="e_0_energy">   -667.06809168 </i>
   </energy>
  </scstep>
  <scstep>
   <time name="dav">   25.25   25.26</time>
   <time name="total">   27.57   27.58</time>
   <energy>
    <i name="e_fr_energy">   -668.01898299 </i>
    <i name="e_wo_entrp">   -668.01898299 </i>
    <i name="e_0_energy">   -668.01898299 </i>
   </energy>
  </scstep>
  <scstep>
   <time name="dav">   24.79   24.80</time>
   <time name="total">   27.12   27.13</time>
   <energy>
    <i name="e_fr_energy">   -669.00469840 </i>
    <i name="e_wo_entrp">   -669.00469840 </i>
    <i name="e_0_energy">   -669.00469840 </i>
   </energy>
  </scstep>
  <scstep>
   <time name="dav">   24.85   24.86</time>
   <time name="total">   27.16   27.17</time>
   <energy>
    <i name="e_fr_energy">   -670.14730941 </i>
    <i name="e_wo_entrp">   -670.14730941 </i>
    <i name="e_0_energy">   -670.14730941 </i>
   </energy>
  </scstep>
  <scstep>
   <time name="dav">   25.32   25.33</time>
   <time name="total">   27.63   27.64</time>
   <energy>
    <i name="e_fr_energy">   -670.35186141 </i>
    <i name="e_wo_entrp">   -670.35186141 </i>
    <i name="e_0_energy">   -670.35186141 </i>
   </energy>
  </scstep>
  <scstep>
   <time name="dav">   29.61   29.63</time>
   <time name="total">   31.93   31.94</time>
   <energy>
    <i name="e_fr_energy">   -670.40160607 </i>
    <i name="e_wo_entrp">   -670.40160607 </i>
    <i name="e_0_energy">   -670.40160607 </i>
   </energy>
  </scstep>
  <scstep>
   <time name="dav">   27.25   27.26</time>
   <time name="total">   29.57   29.58</time>
   <energy>
    <i name="e_fr_energy">   -670.44049852 </i>
    <i name="e_wo_entrp">   -670.44049852 </i>
    <i name="e_0_energy">   -670.44049852 </i>
   </energy>
  </scstep>
  <scstep>
   <time name="dav">   26.21   26.22</time>
   <time name="total">   28.52   28.54</time>
   <energy>
    <i name="e_fr_energy">   -670.47480295 </i>
    <i name="e_wo_entrp">   -670.47480295 </i>
    <i name="e_0_energy">   -670.47480295 </i>
   </energy>
  </scstep>
  <scstep>
   <time name="dav">   25.24   25.25</time>
   <time name="total">   27.57   27.59</time>
   <energy>
    <i name="e_fr_energy">   -670.49444571 </i>
    <i name="e_wo_entrp">   -670.49444571 </i>
    <i name="e_0_energy">   -670.49444571 </i>
   </energy>
  </scstep>
  <scstep>
   <time name="dav">   25.97   25.98</time>
   <time name="total">   28.28   28.30</time>
   <energy>
    <i name="e_fr_energy">   -670.50439552 </i>
    <i name="e_wo_entrp">   -670.50439552 </i>
    <i name="e_0_energy">   -670.50439552 </i>
   </energy>
  </scstep>
  <scstep>
   <time name="dav">   24.57   24.58</time>
   <time name="total">   26.89   26.90</time>
   <energy>
    <i name="e_fr_energy">   -670.51347599 </i>
    <i name="e_wo_entrp">   -670.51347599 </i>
    <i name="e_0_energy">   -670.51347599 </i>
   </energy>
  </scstep>
  <scstep>
   <time name="dav">   25.47   25.48</time>
   <time name="total">   27.80   27.81</time>
   <energy>
    <i name="e_fr_energy">   -670.51641828 </i>
    <i name="e_wo_entrp">   -670.51641828 </i>
    <i name="e_0_energy">   -670.51641828 </i>
   </energy>
  </scstep>
  <scstep>
   <time name="dav">   25.03   25.04</time>
   <time name="total">   27.36   27.38</time>
   <energy>
    <i name="e_fr_energy">   -670.51842060 </i>
    <i name="e_wo_entrp">   -670.51842060 </i>
    <i name="e_0_energy">   -670.51842060 </i>
   </energy>
  </scstep>
  <scstep>
   <time name="dav">   25.16   25.17</time>
   <time name="total">   27.48   27.49</time>
   <energy>
    <i name="e_fr_energy">   -670.51963016 </i>
    <i name="e_wo_entrp">   -670.51963016 </i>
    <i name="e_0_energy">   -670.51963016 </i>
   </energy>
  </scstep>
  <scstep>
   <time name="dav">   25.82   25.83</time>
   <time name="total">   28.15   28.16</time>
   <energy>
    <i name="e_fr_energy">   -670.52036241 </i>
    <i name="e_wo_entrp">   -670.52036241 </i>
    <i name="e_0_energy">   -670.52036241 </i>
   </energy>
  </scstep>
  <scstep>
   <time name="dav">   25.24   25.25</time>
   <time name="total">   27.56   27.57</time>
   <energy>
    <i name="e_fr_energy">   -670.52070353 </i>
    <i name="e_wo_entrp">   -670.52070353 </i>
    <i name="e_0_energy">   -670.52070353 </i>
   </energy>
  </scstep>
  <scstep>
   <time name="dav">   24.83   24.84</time>
   <time name="total">   27.16   27.17</time>
   <energy>
    <i name="e_fr_energy">   -670.52082244 </i>
    <i name="e_wo_entrp">   -670.52082244 </i>
    <i name="e_0_energy">   -670.52082244 </i>
   </energy>
  </scstep>
  <scstep>
   <time name="dav">   21.27   21.28</time>
   <time name="total">   23.59   23.61</time>
   <energy>
    <i name="e_fr_energy">   -670.52090232 </i>
    <i name="e_wo_entrp">   -670.52090232 </i>
    <i name="e_0_energy">   -670.52090232 </i>
   </energy>
  </scstep>
  <scstep>
   <time name="dav">   20.40   20.41</time>
   <time name="total">   22.72   22.73</time>
   <energy>
    <i name="e_fr_energy">   -670.52096359 </i>
    <i name="e_wo_entrp">   -670.52096359 </i>
    <i name="e_0_energy">   -670.52096359 </i>
   </energy>
  </scstep>
  <scstep>
   <time name="dav">   20.64   20.65</time>
   <time name="total">   22.98   22.99</time>
   <energy>
    <i name="e_fr_energy">   -670.52101479 </i>
    <i name="e_wo_entrp">   -670.52101479 </i>
    <i name="e_0_energy">   -670.52101479 </i>
   </energy>
  </scstep>
  <scstep>
   <time name="dav">   18.67   18.67</time>
   <time name="total">   20.99   21.00</time>
   <energy>
    <i name="e_fr_energy">   -670.52102968 </i>
    <i name="e_wo_entrp">   -670.52102968 </i>
    <i name="e_0_energy">   -670.52102968 </i>
   </energy>
  </scstep>
  <scstep>
   <time name="dav">   17.30   17.30</time>
   <time name="total">   19.63   19.64</time>
   <energy>
    <i name="e_fr_energy">   -670.52103640 </i>
    <i name="e_wo_entrp">   -670.52103640 </i>
    <i name="e_0_energy">   -670.52103640 </i>
   </energy>
  </scstep>
  <scstep>
   <time name="dav">   15.36   15.37</time>
   <time name="total">   17.67   17.68</time>
   <energy>
    <i name="e_fr_energy">   -670.52103941 </i>
    <i name="e_wo_entrp">   -670.52103941 </i>
    <i name="e_0_energy">   -670.52103941 </i>
   </energy>
  </scstep>
  <scstep>
   <time name="dav">   13.63   13.63</time>
   <time name="total">   15.95   15.96</time>
   <energy>
    <i name="e_fr_energy">   -670.52104214 </i>
    <i name="e_wo_entrp">   -670.52104214 </i>
    <i name="e_0_energy">   -670.52104214 </i>
   </energy>
  </scstep>
  <scstep>
   <time name="dav">   16.45   16.45</time>
   <time name="total">   18.75   18.76</time>
   <energy>
    <i name="e_fr_energy">   -670.52104500 </i>
    <i name="e_wo_entrp">   -670.52104500 </i>
    <i name="e_0_energy">   -670.52104500 </i>
   </energy>
  </scstep>
  <scstep>
   <time name="dav">   13.39   13.40</time>
   <time name="total">   15.71   15.72</time>
   <energy>
    <i name="e_fr_energy">   -670.52104659 </i>
    <i name="e_wo_entrp">   -670.52104659 </i>
    <i name="e_0_energy">   -670.52104659 </i>
   </energy>
  </scstep>
  <scstep>
   <time name="dav">   12.85   12.86</time>
   <time name="total">   14.13   14.13</time>
   <energy>
    <i name="alphaZ">   1773.46029266 </i>
    <i name="ewald"> 131609.86876791 </i>
    <i name="hartreedc">-184635.27793355 </i>
    <i name="XCdc">   1944.25603194 </i>
    <i name="pawpsdc">  51622.46213025 </i>
    <i name="pawaedc"> -51006.79871103 </i>
    <i name="eentropy">     -0.00000000 </i>
    <i name="bandstr">  -7920.01049398 </i>
    <i name="atom">  55941.51886831 </i>
    <i name="e_fr_energy">   -670.52104749 </i>
    <i name="e_wo_entrp">   -670.52104749 </i>
    <i name="e_0_energy">   -670.52104749 </i>
   </energy>
  </scstep>
  <structure>
   <crystal>
    <varray name="basis" >
     <v>      11.59820000       0.00000000       0.00000000 </v>
     <v>      -5.79910000      10.04433584       0.00000000 </v>
     <v>       0.00000000       0.00000000      21.04820000 </v>
    </varray>
    <i name="volume">   2452.03565189 </i>
    <varray name="rec_basis" >
     <v>       0.08622028       0.04977930       0.00000000 </v>
     <v>       0.00000000       0.09955860       0.00000000 </v>
     <v>       0.00000000       0.00000000       0.04751000 </v>
    </varray>
   </crystal>
   <varray name="positions" >
    <v>       0.00000000       0.00000000       0.45993000 </v>
    <v>       0.22222000       0.11111000       0.30996000 </v>
    <v>       0.11111000       0.22222000       0.15999000 </v>
    <v>       0.33333000       0.00000000       0.45993000 </v>
    <v>       0.55556000       0.11111000       0.30996000 </v>
    <v>       0.44444000       0.22222000       0.15999000 </v>
    <v>       0.66667000       0.00000000       0.45993000 </v>
    <v>       0.88889000       0.11111000       0.30996000 </v>
    <v>       0.77778000       0.22222000       0.15999000 </v>
    <v>       0.00000000       0.33333000       0.45993000 </v>
    <v>       0.22222000       0.44444000       0.30996000 </v>
    <v>       0.11111000       0.55556000       0.15999000 </v>
    <v>       0.33333000       0.33333000       0.45993000 </v>
    <v>       0.55556000       0.44444000       0.30996000 </v>
    <v>       0.44444000       0.55556000       0.15999000 </v>
    <v>       0.66667000       0.33333000       0.45993000 </v>
    <v>       0.88889000       0.44444000       0.30996000 </v>
    <v>       0.77778000       0.55556000       0.15999000 </v>
    <v>       0.00000000       0.66667000       0.45993000 </v>
    <v>       0.22222000       0.77778000       0.30996000 </v>
    <v>       0.11111000       0.88889000       0.15999000 </v>
    <v>       0.33333000       0.66667000       0.45993000 </v>
    <v>       0.55556000       0.77778000       0.30996000 </v>
    <v>       0.44444000       0.88889000       0.15999000 </v>
    <v>       0.66667000       0.66667000       0.45993000 </v>
    <v>       0.88889000       0.77778000       0.30996000 </v>
    <v>       0.77778000       0.88889000       0.15999000 </v>
    <v>       0.00000000       0.00000000       0.12250000 </v>
    <v>       0.11111000       0.22222000       0.27247000 </v>
    <v>       0.22222000       0.11111000       0.42244000 </v>
    <v>       0.11111000       0.22222000       0.04751000 </v>
    <v>       0.11111000       0.22222000       0.49742000 </v>
    <v>       0.00000000       0.00000000       0.34745000 </v>
    <v>       0.22222000       0.11111000       0.19748000 </v>
    <v>       0.33333000       0.00000000       0.12250000 </v>
    <v>       0.44444000       0.22222000       0.27247000 </v>
    <v>       0.55556000       0.11111000       0.42244000 </v>
    <v>       0.44444000       0.22222000       0.04751000 </v>
    <v>       0.44444000       0.22222000       0.49742000 </v>
    <v>       0.33333000       0.00000000       0.34745000 </v>
    <v>       0.55556000       0.11111000       0.19748000 </v>
    <v>       0.66667000       0.00000000       0.12250000 </v>
    <v>       0.77778000       0.22222000       0.27247000 </v>
    <v>       0.88889000       0.11111000       0.42244000 </v>
    <v>       0.77778000       0.22222000       0.04751000 </v>
    <v>       0.77778000       0.22222000       0.49742000 </v>
    <v>       0.66667000       0.00000000       0.34745000 </v>
    <v>       0.88889000       0.11111000       0.19748000 </v>
    <v>       0.00000000       0.33333000       0.12250000 </v>
    <v>       0.11111000       0.55556000       0.27247000 </v>
    <v>       0.22222000       0.44444000       0.42244000 </v>
    <v>       0.11111000       0.55556000       0.04751000 </v>
    <v>       0.11111000       0.55556000       0.49742000 </v>
    <v>       0.00000000       0.33333000       0.34745000 </v>
    <v>       0.22222000       0.44444000       0.19748000 </v>
    <v>       0.33333000       0.33333000       0.12250000 </v>
    <v>       0.44444000       0.55556000       0.27247000 </v>
    <v>       0.55556000       0.44444000       0.42244000 </v>
    <v>       0.44444000       0.55556000       0.04751000 </v>
    <v>       0.44444000       0.55556000       0.49742000 </v>
    <v>       0.33333000       0.33333000       0.34745000 </v>
    <v>       0.55556000       0.44444000       0.19748000 </v>
    <v>       0.66667000       0.33333000       0.12250000 </v>
    <v>       0.77778000       0.55556000       0.27247000 </v>
    <v>       0.88889000       0.44444000       0.42244000 </v>
    <v>       0.77778000       0.55556000       0.04751000 </v>
    <v>       0.77778000       0.55556000       0.49742000 </v>
    <v>       0.66667000       0.33333000       0.34745000 </v>
    <v>       0.88889000       0.44444000       0.19748000 </v>
    <v>       0.00000000       0.66667000       0.12250000 </v>
    <v>       0.11111000       0.88889000       0.27247000 </v>
    <v>       0.22222000       0.77778000       0.42244000 </v>
    <v>       0.11111000       0.88889000       0.04751000 </v>
    <v>       0.11111000       0.88889000       0.49742000 </v>
    <v>       0.00000000       0.66667000       0.34745000 </v>
    <v>       0.22222000       0.77778000       0.19748000 </v>
    <v>       0.33333000       0.66667000       0.12250000 </v>
    <v>       0.44444000       0.88889000       0.27247000 </v>
    <v>       0.55556000       0.77778000       0.42244000 </v>
    <v>       0.44444000       0.88889000       0.04751000 </v>
    <v>       0.44444000       0.88889000       0.49742000 </v>
    <v>       0.33333000       0.66667000       0.34745000 </v>
    <v>       0.55556000       0.77778000       0.19748000 </v>
    <v>       0.66667000       0.66667000       0.12250000 </v>
    <v>       0.77778000       0.88889000       0.27247000 </v>
    <v>       0.88889000       0.77778000       0.42244000 </v>
    <v>       0.77778000       0.88889000       0.04751000 </v>
    <v>       0.77778000       0.88889000       0.49742000 </v>
    <v>       0.66667000       0.66667000       0.34745000 </v>
    <v>       0.88889000       0.77778000       0.19748000 </v>
   </varray>
  </structure>
  <varray name="forces" >
   <v>       0.00010879      -0.00006281       0.23295386 </v>
   <v>       0.00028671       0.00003170       0.22331681 </v>
   <v>      -0.00005150       0.00019794      -0.05728141 </v>
   <v>       0.00039391       0.00003279       0.23283871 </v>
   <v>      -0.00075409      -0.00031741       0.22319137 </v>
   <v>       0.00060658       0.00035776      -0.05715338 </v>
   <v>      -0.00042596      -0.00028921       0.23294353 </v>
   <v>       0.00009500      -0.00005485       0.22316411 </v>
   <v>      -0.00022202       0.00012818      -0.05746964 </v>
   <v>       0.00003749       0.00051350       0.23294353 </v>
   <v>       0.00006959       0.00090523       0.22335909 </v>
   <v>       0.00015659      -0.00063250      -0.05696510 </v>
   <v>       0.00032328       0.00060545       0.23283264 </v>
   <v>      -0.00096670       0.00055812       0.22321263 </v>
   <v>       0.00083641      -0.00048290      -0.05684735 </v>
   <v>      -0.00050254       0.00029014       0.23293938 </v>
   <v>      -0.00010216       0.00081176       0.22319137 </v>
   <v>      -0.00000654      -0.00070419      -0.05715338 </v>
   <v>       0.00016856      -0.00035753       0.23283871 </v>
   <v>       0.00029483      -0.00017022       0.22348573 </v>
   <v>      -0.00004560       0.00002633      -0.05710545 </v>
   <v>       0.00045194      -0.00026093       0.23272452 </v>
   <v>      -0.00074916      -0.00051289       0.22335909 </v>
   <v>       0.00062606       0.00018064      -0.05696510 </v>
   <v>      -0.00036269      -0.00058270       0.23283264 </v>
   <v>       0.00011591      -0.00026415       0.22331681 </v>
   <v>      -0.00019718      -0.00005437      -0.05728141 </v>
   <v>       0.00004881      -0.00002818      -0.24491501 </v>
   <v>      -0.00005512       0.00007954      -0.03930942 </v>
   <v>      -0.00004301       0.00007903      -0.19165560 </v>
   <v>      -0.00002823       0.00003196      -0.05540323 </v>
   <v>      -0.00000835       0.00006048      -0.02491054 </v>
   <v>      -0.00004682       0.00002703       0.16761755 </v>
   <v>       0.00010543       0.00003521      -0.01034243 </v>
   <v>       0.00022012       0.00006046      -0.24475461 </v>
   <v>       0.00056377       0.00012303      -0.03929983 </v>
   <v>      -0.00024292       0.00014094      -0.19175374 </v>
   <v>       0.00002995       0.00005641      -0.05529684 </v>
   <v>       0.00024988      -0.00001537      -0.02512755 </v>
   <v>       0.00036405       0.00024084       0.16768172 </v>
   <v>      -0.00050237      -0.00000059      -0.01026483 </v>
   <v>      -0.00027934      -0.00016883      -0.24486652 </v>
   <v>      -0.00009491       0.00005480      -0.03918363 </v>
   <v>      -0.00009300       0.00005369      -0.19169000 </v>
   <v>      -0.00003212       0.00001854      -0.05533500 </v>
   <v>      -0.00005729       0.00003308      -0.02489234 </v>
   <v>      -0.00017962      -0.00002243       0.16745561 </v>
   <v>       0.00002033      -0.00001174      -0.01022435 </v>
   <v>       0.00000654       0.00032633      -0.24486652 </v>
   <v>       0.00021466      -0.00052540      -0.03942484 </v>
   <v>      -0.00019623       0.00016526      -0.19172025 </v>
   <v>      -0.00002640      -0.00004512      -0.05535754 </v>
   <v>       0.00018621      -0.00017988      -0.02514442 </v>
   <v>      -0.00007038       0.00016677       0.16745561 </v>
   <v>      -0.00016812       0.00048322      -0.01038462 </v>
   <v>       0.00017730       0.00041947      -0.24470567 </v>
   <v>       0.00083032      -0.00047939      -0.03941439 </v>
   <v>      -0.00039351       0.00022719      -0.19181875 </v>
   <v>       0.00002850      -0.00001645      -0.05528546 </v>
   <v>       0.00044363      -0.00025613      -0.02536154 </v>
   <v>       0.00034218       0.00037936       0.16751989 </v>
   <v>      -0.00077242       0.00044596      -0.01030421 </v>
   <v>      -0.00032294       0.00018645      -0.24481370 </v>
   <v>       0.00017534      -0.00054975      -0.03929983 </v>
   <v>      -0.00024352       0.00013991      -0.19175374 </v>
   <v>      -0.00003388      -0.00005414      -0.05529684 </v>
   <v>       0.00013825      -0.00020872      -0.02512755 </v>
   <v>      -0.00020071       0.00011588       0.16729231 </v>
   <v>      -0.00025068       0.00043536      -0.01026483 </v>
   <v>       0.00005770      -0.00022086      -0.24475461 </v>
   <v>      -0.00005314       0.00003068      -0.03943561 </v>
   <v>      -0.00004354       0.00002514      -0.19162188 </v>
   <v>      -0.00003063       0.00001769      -0.05546358 </v>
   <v>      -0.00000969       0.00000559      -0.02492794 </v>
   <v>      -0.00002655      -0.00043569       0.16768172 </v>
   <v>       0.00010049      -0.00005802      -0.01046339 </v>
   <v>       0.00023251      -0.00013424      -0.24459698 </v>
   <v>       0.00056234       0.00007680      -0.03942484 </v>
   <v>      -0.00024123       0.00008731      -0.19172025 </v>
   <v>       0.00002587       0.00004543      -0.05535754 </v>
   <v>       0.00024889      -0.00007132      -0.02514442 </v>
   <v>       0.00038522      -0.00022241       0.16774610 </v>
   <v>      -0.00050254      -0.00009601      -0.01038462 </v>
   <v>      -0.00027462      -0.00036328      -0.24470567 </v>
   <v>      -0.00009644       0.00000797      -0.03930942 </v>
   <v>      -0.00008995      -0.00000226      -0.19165560 </v>
   <v>      -0.00004180       0.00000847      -0.05540323 </v>
   <v>      -0.00005655      -0.00002301      -0.02491054 </v>
   <v>      -0.00015744      -0.00048602       0.16751989 </v>
   <v>       0.00002222      -0.00010891      -0.01034243 </v>
  </varray>
  <varray name="stress" >
   <v>     -11.23393993       0.00095365       0.00028639 </v>
   <v>       0.00095365     -11.23283876      -0.00016535 </v>
   <v>       0.00028618      -0.00016523       9.09556882 </v>
  </varray>
  <energy>
   <i name="e_fr_energy">   -670.52104749 </i>
   <i name="e_wo_entrp">   -670.52104749 </i>
   <i name="e_0_energy">   -670.52104749 </i>
  </energy>
  <time name="totalsc"> 1089.41 1090.12</time>
 </calculation>
 <calculation>
  <scstep>
   <time name="dav">   17.08   17.09</time>
   <time name="total">   19.40   19.41</time>
   <energy>
    <i name="alphaZ">   1773.46029266 </i>
    <i name="ewald"> 131410.47627800 </i>
    <i name="hartreedc">-184438.03230230 </i>
    <i name="XCdc">   1944.08701521 </i>
    <i name="pawpsdc">  51622.50480749 </i>
    <i name="pawaedc"> -51006.84072324 </i>
    <i name="eentropy">     -0.00000000 </i>
    <i name="bandstr">  -7917.65735775 </i>
    <i name="atom">  55941.51886831 </i>
    <i name="e_fr_energy">   -670.48312161 </i>
    <i name="e_wo_entrp">   -670.48312161 </i>
    <i name="e_0_energy">   -670.48312161 </i>
   </energy>
  </scstep>
  <scstep>
   <time name="dav">   28.63   28.64</time>
   <time name="total">   30.94   30.95</time>
   <energy>
    <i name="e_fr_energy">   -670.55432747 </i>
    <i name="e_wo_entrp">   -670.55432747 </i>
    <i name="e_0_energy">   -670.55432747 </i>
   </energy>
  </scstep>
  <scstep>
   <time name="dav">   28.44   28.45</time>
   <time name="total">   30.75   30.77</time>
   <energy>
    <i name="e_fr_energy">   -670.56240232 </i>
    <i name="e_wo_entrp">   -670.56240232 </i>
    <i name="e_0_energy">   -670.56240232 </i>
   </energy>
  </scstep>
  <scstep>
   <time name="dav">   30.26   30.28</time>
   <time name="total">   32.59   32.60</time>
   <energy>
    <i name="e_fr_energy">   -670.56176560 </i>
    <i name="e_wo_entrp">   -670.56176560 </i>
    <i name="e_0_energy">   -670.56176560 </i>
   </energy>
  </scstep>
  <scstep>
   <time name="dav">   28.83   28.85</time>
   <time name="total">   31.14   31.16</time>
   <energy>
    <i name="e_fr_energy">   -670.56062863 </i>
    <i name="e_wo_entrp">   -670.56062863 </i>
    <i name="e_0_energy">   -670.56062863 </i>
   </energy>
  </scstep>
  <scstep>
   <time name="dav">   28.03   28.04</time>
   <time name="total">   30.34   30.36</time>
   <energy>
    <i name="e_fr_energy">   -670.55935343 </i>
    <i name="e_wo_entrp">   -670.55935343 </i>
    <i name="e_0_energy">   -670.55935343 </i>
   </energy>
  </scstep>
  <scstep>
   <time name="dav">   27.64   27.65</time>
   <time name="total">   29.95   29.96</time>
   <energy>
    <i name="e_fr_energy">   -670.55916904 </i>
    <i name="e_wo_entrp">   -670.55916904 </i>
    <i name="e_0_energy">   -670.55916904 </i>
   </energy>
  </scstep>
  <scstep>
   <time name="dav">   25.93   25.94</time>
   <time name="total">   28.24   28.26</time>
   <energy>
    <i name="e_fr_energy">   -670.55927442 </i>
    <i name="e_wo_entrp">   -670.55927442 </i>
    <i name="e_0_energy">   -670.55927442 </i>
   </energy>
  </scstep>
  <scstep>
   <time name="dav">   26.37   26.38</time>
   <time name="total">   28.67   28.69</time>
   <energy>
    <i name="e_fr_energy">   -670.55925304 </i>
    <i name="e_wo_entrp">   -670.55925304 </i>
    <i name="e_0_energy">   -670.55925304 </i>
   </energy>
  </scstep>
  <scstep>
   <time name="dav">   29.72   29.74</time>
   <time name="total">   32.04   32.05</time>
   <energy>
    <i name="e_fr_energy">   -670.55927419 </i>
    <i name="e_wo_entrp">   -670.55927419 </i>
    <i name="e_0_energy">   -670.55927419 </i>
   </energy>
  </scstep>
  <scstep>
   <time name="dav">   28.19   28.20</time>
   <time name="total">   30.50   30.51</time>
   <energy>
    <i name="e_fr_energy">   -670.55928971 </i>
    <i name="e_wo_entrp">   -670.55928971 </i>
    <i name="e_0_energy">   -670.55928971 </i>
   </energy>
  </scstep>
  <scstep>
   <time name="dav">   25.52   25.53</time>
   <time name="total">   27.83   27.85</time>
   <energy>
    <i name="e_fr_energy">   -670.55930756 </i>
    <i name="e_wo_entrp">   -670.55930756 </i>
    <i name="e_0_energy">   -670.55930756 </i>
   </energy>
  </scstep>
  <scstep>
   <time name="dav">   21.71   21.72</time>
   <time name="total">   24.02   24.03</time>
   <energy>
    <i name="e_fr_energy">   -670.55933598 </i>
    <i name="e_wo_entrp">   -670.55933598 </i>
    <i name="e_0_energy">   -670.55933598 </i>
   </energy>
  </scstep>
  <scstep>
   <time name="dav">   20.22   20.23</time>
   <time name="total">   22.54   22.55</time>
   <energy>
    <i name="e_fr_energy">   -670.55936732 </i>
    <i name="e_wo_entrp">   -670.55936732 </i>
    <i name="e_0_energy">   -670.55936732 </i>
   </energy>
  </scstep>
  <scstep>
   <time name="dav">   18.24   18.25</time>
   <time name="total">   20.55   20.56</time>
   <energy>
    <i name="e_fr_energy">   -670.55942225 </i>
    <i name="e_wo_entrp">   -670.55942225 </i>
    <i name="e_0_energy">   -670.55942225 </i>
   </energy>
  </scstep>
  <scstep>
   <time name="dav">   19.45   19.46</time>
   <time name="total">   21.78   21.79</time>
   <energy>
    <i name="e_fr_energy">   -670.55946874 </i>
    <i name="e_wo_entrp">   -670.55946874 </i>
    <i name="e_0_energy">   -670.55946874 </i>
   </energy>
  </scstep>
  <scstep>
   <time name="dav">   18.60   18.61</time>
   <time name="total">   20.93   20.94</time>
   <energy>
    <i name="e_fr_energy">   -670.55949852 </i>
    <i name="e_wo_entrp">   -670.55949852 </i>
    <i name="e_0_energy">   -670.55949852 </i>
   </energy>
  </scstep>
  <scstep>
   <time name="dav">   17.62   17.62</time>
   <time name="total">   19.93   19.94</time>
   <energy>
    <i name="e_fr_energy">   -670.55952217 </i>
    <i name="e_wo_entrp">   -670.55952217 </i>
    <i name="e_0_energy">   -670.55952217 </i>
   </energy>
  </scstep>
  <scstep>
   <time name="dav">   16.54   16.55</time>
   <time name="total">   18.86   18.87</time>
   <energy>
    <i name="e_fr_energy">   -670.55953801 </i>
    <i name="e_wo_entrp">   -670.55953801 </i>
    <i name="e_0_energy">   -670.55953801 </i>
   </energy>
  </scstep>
  <scstep>
   <time name="dav">   14.93   14.94</time>
   <time name="total">   17.25   17.26</time>
   <energy>
    <i name="e_fr_energy">   -670.55954732 </i>
    <i name="e_wo_entrp">   -670.55954732 </i>
    <i name="e_0_energy">   -670.55954732 </i>
   </energy>
  </scstep>
  <scstep>
   <time name="dav">   12.92   12.93</time>
   <time name="total">   15.23   15.24</time>
   <energy>
    <i name="e_fr_energy">   -670.55955072 </i>
    <i name="e_wo_entrp">   -670.55955072 </i>
    <i name="e_0_energy">   -670.55955072 </i>
   </energy>
  </scstep>
  <scstep>
   <time name="dav">   12.85   12.86</time>
   <time name="total">   15.17   15.18</time>
   <energy>
    <i name="e_fr_energy">   -670.55955223 </i>
    <i name="e_wo_entrp">   -670.55955223 </i>
    <i name="e_0_energy">   -670.55955223 </i>
   </energy>
  </scstep>
  <scstep>
   <time name="dav">   12.85   12.86</time>
   <time name="total">   15.17   15.18</time>
   <energy>
    <i name="e_fr_energy">   -670.55955458 </i>
    <i name="e_wo_entrp">   -670.55955458 </i>
    <i name="e_0_energy">   -670.55955458 </i>
   </energy>
  </scstep>
  <scstep>
   <time name="dav">   12.85   12.86</time>
   <time name="total">   15.17   15.18</time>
   <energy>
    <i name="e_fr_energy">   -670.55955590 </i>
    <i name="e_wo_entrp">   -670.55955590 </i>
    <i name="e_0_energy">   -670.55955590 </i>
   </energy>
  </scstep>
  <scstep>
   <time name="dav">   12.87   12.88</time>
   <time name="total">   14.14   14.15</time>
   <energy>
    <i name="alphaZ">   1773.46029266 </i>
    <i name="ewald"> 131410.47627800 </i>
    <i name="hartreedc">-184455.35266361 </i>
    <i name="XCdc">   1944.11462873 </i>
    <i name="pawpsdc">  51610.96249909 </i>
    <i name="pawaedc"> -50995.29045649 </i>
    <i name="eentropy">     -0.00000000 </i>
    <i name="bandstr">  -7900.44900294 </i>
    <i name="atom">  55941.51886831 </i>
    <i name="e_fr_energy">   -670.55955624 </i>
    <i name="e_wo_entrp">   -670.55955624 </i>
    <i name="e_0_energy">   -670.55955624 </i>
   </energy>
  </scstep>
  <structure>
   <crystal>
    <varray name="basis" >
     <v>      11.59820000       0.00000000       0.00000000 </v>
     <v>      -5.79910000      10.04433584       0.00000000 </v>
     <v>       0.00000000       0.00000000      21.04820000 </v>
    </varray>
    <i name="volume">   2452.03565189 </i>
    <varray name="rec_basis" >
     <v>       0.08622028       0.04977930       0.00000000 </v>
     <v>       0.00000000       0.09955860       0.00000000 </v>
     <v>       0.00000000       0.00000000       0.04751000 </v>
    </varray>
   </crystal>
   <varray name="positions" >
    <v>       0.00000030       0.99999970       0.46046393 </v>
    <v>       0.22222127       0.11111015       0.31047184 </v>
    <v>       0.11111000       0.22222000       0.15999000 </v>
    <v>       0.33333172       0.00000016       0.46046367 </v>
    <v>       0.55555610       0.11110848       0.31047156 </v>
    <v>       0.44444000       0.22222000       0.15999000 </v>
    <v>       0.66666753       0.99999861       0.46046391 </v>
    <v>       0.88889026       0.11110974       0.31047149 </v>
    <v>       0.77778000       0.22222000       0.15999000 </v>
    <v>       0.00000139       0.33333247       0.46046391 </v>
    <v>       0.22222246       0.44444435       0.31047194 </v>
    <v>       0.11111000       0.55556000       0.15999000 </v>
    <v>       0.33333280       0.33333291       0.46046365 </v>
    <v>       0.55555732       0.44444268       0.31047161 </v>
    <v>       0.44444000       0.55556000       0.15999000 </v>
    <v>       0.66666861       0.33333139       0.46046390 </v>
    <v>       0.88889152       0.44444390       0.31047156 </v>
    <v>       0.77778000       0.55556000       0.15999000 </v>
    <v>       0.99999984       0.66666828       0.46046367 </v>
    <v>       0.22222082       0.77777918       0.31047223 </v>
    <v>       0.11111000       0.88889000       0.15999000 </v>
    <v>       0.33333125       0.66666875       0.46046341 </v>
    <v>       0.55555565       0.77777754       0.31047194 </v>
    <v>       0.44444000       0.88889000       0.15999000 </v>
    <v>       0.66666709       0.66666720       0.46046365 </v>
    <v>       0.88888985       0.77777873       0.31047184 </v>
    <v>       0.77778000       0.88889000       0.15999000 </v>
    <v>       0.00000000       0.00000000       0.12250000 </v>
    <v>       0.11110996       0.22222038       0.27237990 </v>
    <v>       0.22222001       0.11111038       0.42200072 </v>
    <v>       0.11111000       0.22222000       0.04751000 </v>
    <v>       0.11111011       0.22222029       0.49736290 </v>
    <v>       0.99999987       0.00000013       0.34783418 </v>
    <v>       0.22222000       0.11111000       0.19748000 </v>
    <v>       0.33333000       0.00000000       0.12250000 </v>
    <v>       0.44444264       0.22222059       0.27237992 </v>
    <v>       0.55555933       0.11111068       0.42200050 </v>
    <v>       0.44444000       0.22222000       0.04751000 </v>
    <v>       0.44444100       0.22221993       0.49736241 </v>
    <v>       0.33333209       0.00000116       0.34783433 </v>
    <v>       0.55556000       0.11111000       0.19748000 </v>
    <v>       0.66667000       0.00000000       0.12250000 </v>
    <v>       0.77777974       0.22222026       0.27238019 </v>
    <v>       0.88888974       0.11111026       0.42200064 </v>
    <v>       0.77778000       0.22222000       0.04751000 </v>
    <v>       0.77777984       0.22222016       0.49736295 </v>
    <v>       0.66666920       0.99999989       0.34783381 </v>
    <v>       0.88889000       0.11111000       0.19748000 </v>
    <v>       0.00000000       0.33333000       0.12250000 </v>
    <v>       0.11110963       0.55555748       0.27237964 </v>
    <v>       0.22221958       0.44444079       0.42200058 </v>
    <v>       0.11111000       0.55556000       0.04751000 </v>
    <v>       0.11111034       0.55555914       0.49736237 </v>
    <v>       0.00000011       0.33333080       0.34783381 </v>
    <v>       0.22222000       0.44444000       0.19748000 </v>
    <v>       0.33333000       0.33333000       0.12250000 </v>
    <v>       0.44444230       0.55555770       0.27237966 </v>
    <v>       0.55555891       0.44444109       0.42200035 </v>
    <v>       0.44444000       0.55556000       0.04751000 </v>
    <v>       0.44444123       0.55555877       0.49736187 </v>
    <v>       0.33333233       0.33333182       0.34783396 </v>
[...]
       <r>   -24.1170     0.0000    27.0000 </r>
       <r>   -23.9834     0.0000    27.0000 </r>
       <r>   -23.8499     0.0000    27.0000 </r>
       <r>   -23.7164     0.0000    27.0000 </r>
       <r>   -23.5829     0.0000    27.0000 </r>
       <r>   -23.4494     0.0000    27.0000 </r>
       <r>   -23.3159     0.0000    27.0000 </r>
       <r>   -23.1824     0.0000    27.0000 </r>
       <r>   -23.0489     0.0000    27.0000 </r>
       <r>   -22.9154     0.0000    27.0000 </r>
       <r>   -22.7819     0.0000    27.0000 </r>
       <r>   -22.6484     0.0000    27.0000 </r>
       <r>   -22.5149     0.0000    27.0000 </r>
       <r>   -22.3814     0.0000    27.0000 </r>
       <r>   -22.2479     0.0000    27.0000 </r>
       <r>   -22.1144     0.0000    27.0000 </r>
       <r>   -21.9809     0.0000    27.0000 </r>
       <r>   -21.8474     0.0000    27.0000 </r>
       <r>   -21.7138     0.0000    27.0000 </r>
       <r>   -21.5803     0.0000    27.0000 </r>
       <r>   -21.4468     0.0000    27.0000 </r>
       <r>   -21.3133     0.0000    27.0000 </r>
       <r>   -21.1798     0.0000    27.0000 </r>
       <r>   -21.0463     0.0000    27.0000 </r>
       <r>   -20.9128     0.0000    27.0000 </r>
       <r>   -20.7793     0.0000    27.0000 </r>
       <r>   -20.6458     0.0000    27.0000 </r>
       <r>   -20.5123     0.0000    27.0000 </r>
       <r>   -20.3788     0.0000    27.0000 </r>
       <r>   -20.2453     0.0028    27.0004 </r>
       <r>   -20.1118     4.6591    27.6224 </r>
       <r>   -19.9783    10.7622    29.0592 </r>
       <r>   -19.8448    23.9855    32.2614 </r>
       <r>   -19.7113    52.1843    39.2283 </r>
       <r>   -19.5778    34.6304    43.8517 </r>
       <r>   -19.4442    29.0658    47.7321 </r>
       <r>   -19.3107    11.4596    49.2621 </r>
       <r>   -19.1772    16.2494    51.4314 </r>
       <r>   -19.0437    19.7178    54.0639 </r>
       <r>   -18.9102    13.4559    55.8603 </r>
       <r>   -18.7767    24.8372    59.1762 </r>
       <r>   -18.6432    22.3240    62.1566 </r>
       <r>   -18.5097    17.9793    64.5570 </r>
       <r>   -18.3762     6.8137    65.4666 </r>
       <r>   -18.2427    14.9467    67.4621 </r>
       <r>   -18.1092    31.3944    71.6534 </r>
       <r>   -17.9757    25.4308    75.0486 </r>
       <r>   -17.8422    13.5436    76.8567 </r>
       <r>   -17.7087    27.8619    80.5764 </r>
       <r>   -17.5752    13.7110    82.4069 </r>
       <r>   -17.4417    34.0051    86.9468 </r>
       <r>   -17.3082    77.1019    97.2404 </r>
       <r>   -17.1747    56.5508   104.7902 </r>
       <r>   -17.0411    27.2709   108.4310 </r>
       <r>   -16.9076     9.8594   109.7473 </r>
       <r>   -16.7741     4.7863   110.3863 </r>
       <r>   -16.6406    11.1608   111.8763 </r>
       <r>   -16.5071    12.6594   113.5664 </r>
       <r>   -16.3736    29.9295   117.5622 </r>
       <r>   -16.2401    27.4720   121.2299 </r>
       <r>   -16.1066    14.8799   123.2164 </r>
       <r>   -15.9731     9.8939   124.5373 </r>
       <r>   -15.8396    28.8718   128.3919 </r>
       <r>   -15.7061    33.1434   132.8167 </r>
       <r>   -15.5726    17.2698   135.1223 </r>
       <r>   -15.4391     5.8858   135.9081 </r>
       <r>   -15.3056    39.0433   141.1206 </r>
       <r>   -15.1721    26.8602   144.7066 </r>
       <r>   -15.0386    20.3231   147.4199 </r>
       <r>   -14.9051    16.8076   149.6638 </r>
       <r>   -14.7715    14.8208   151.6425 </r>
       <r>   -14.6380    33.7370   156.1465 </r>
       <r>   -14.5045    41.3912   161.6725 </r>
       <r>   -14.3710    24.4043   164.9306 </r>
       <r>   -14.2375    16.9889   167.1987 </r>
       <r>   -14.1040    16.5817   169.4125 </r>
       <r>   -13.9705     4.0976   169.9595 </r>
       <r>   -13.8370     7.2739   170.9306 </r>
       <r>   -13.7035     0.5195   171.0000 </r>
       <r>   -13.5700     0.0000   171.0000 </r>
       <r>   -13.4365     0.0000   171.0000 </r>
       <r>   -13.3030     0.0000   171.0000 </r>
       <r>   -13.1695     0.0000   171.0000 </r>
       <r>   -13.0360     0.0000   171.0000 </r>
       <r>   -12.9025     0.0000   171.0000 </r>
       <r>   -12.7690     0.0000   171.0000 </r>
       <r>   -12.6355     0.0000   171.0000 </r>
       <r>   -12.5019     0.0000   171.0000 </r>
       <r>   -12.3684     0.0000   171.0000 </r>
       <r>   -12.2349     0.0000   171.0000 </r>
       <r>   -12.1014     0.0000   171.0000 </r>
       <r>   -11.9679     0.0000   171.0000 </r>
       <r>   -11.8344     0.0000   171.0000 </r>
       <r>   -11.7009     0.0000   171.0000 </r>
       <r>   -11.5674     0.0000   171.0000 </r>
       <r>   -11.4339     0.0000   171.0000 </r>
       <r>   -11.3004     0.0000   171.0000 </r>
       <r>   -11.1669     0.0000   171.0000 </r>
       <r>   -11.0334     0.0000   171.0000 </r>
       <r>   -10.8999     0.0000   171.0000 </r>
       <r>   -10.7664     0.0000   171.0000 </r>
       <r>   -10.6329     0.0000   171.0000 </r>
       <r>   -10.4994     0.0000   171.0000 </r>
       <r>   -10.3659     0.0000   171.0000 </r>
       <r>   -10.2324     0.0000   171.0000 </r>
       <r>   -10.0988     0.0000   171.0000 </r>
       <r>    -9.9653     0.0000   171.0000 </r>
       <r>    -9.8318     0.0000   171.0000 </r>
       <r>    -9.6983     0.0000   171.0000 </r>
       <r>    -9.5648     0.0000   171.0000 </r>
       <r>    -9.4313     0.0000   171.0000 </r>
       <r>    -9.2978     0.0000   171.0000 </r>
       <r>    -9.1643     0.0000   171.0000 </r>
       <r>    -9.0308     0.0000   171.0000 </r>
       <r>    -8.8973     0.0000   171.0000 </r>
       <r>    -8.7638     0.0000   171.0000 </r>
       <r>    -8.6303     0.0000   171.0000 </r>
       <r>    -8.4968     0.0000   171.0000 </r>
       <r>    -8.3633     0.0000   171.0000 </r>
       <r>    -8.2298     0.0000   171.0000 </r>
       <r>    -8.0963     0.0000   171.0000 </r>
       <r>    -7.9628     0.0000   171.0000 </r>
       <r>    -7.8292     0.0000   171.0000 </r>
       <r>    -7.6957     0.0000   171.0000 </r>
       <r>    -7.5622     0.0000   171.0000 </r>
       <r>    -7.4287     0.0000   171.0000 </r>
       <r>    -7.2952     0.0000   171.0000 </r>
       <r>    -7.1617     0.0000   171.0000 </r>
       <r>    -7.0282     0.0000   171.0000 </r>
       <r>    -6.8947     0.0000   171.0000 </r>
       <r>    -6.7612     0.0000   171.0000 </r>
       <r>    -6.6277     0.0000   171.0000 </r>
       <r>    -6.4942     0.0000   171.0000 </r>
       <r>    -6.3607     0.0000   171.0000 </r>
       <r>    -6.2272     0.0000   171.0000 </r>
       <r>    -6.0937     0.0000   171.0000 </r>
       <r>    -5.9602     0.0000   171.0000 </r>
       <r>    -5.8267     0.0000   171.0000 </r>
       <r>    -5.6932     0.0000   171.0000 </r>
       <r>    -5.5596     0.0000   171.0000 </r>
       <r>    -5.4261     0.0000   171.0000 </r>
       <r>    -5.2926     0.0000   171.0000 </r>
       <r>    -5.1591     0.0000   171.0000 </r>
       <r>    -5.0256     0.7063   171.0943 </r>
       <r>    -4.8921     9.4937   172.3618 </r>
       <r>    -4.7586    12.4686   174.0264 </r>
       <r>    -4.6251    22.4847   177.0282 </r>
       <r>    -4.4916    21.6108   179.9134 </r>
       <r>    -4.3581    29.9443   183.9111 </r>
       <r>    -4.2246    40.3693   189.3007 </r>
       <r>    -4.0911    60.2478   197.3441 </r>
       <r>    -3.9576    52.8491   204.3998 </r>
       <r>    -3.8241    47.8392   210.7866 </r>
       <r>    -3.6906    26.2870   214.2960 </r>
       <r>    -3.5571    36.9239   219.2256 </r>
       <r>    -3.4236    47.1624   225.5220 </r>
       <r>    -3.2901    35.1444   230.2140 </r>
       <r>    -3.1565    57.9852   237.9554 </r>
       <r>    -3.0230    29.9993   241.9604 </r>
       <r>    -2.8895    37.1360   246.9183 </r>
       <r>    -2.7560    29.0017   250.7902 </r>
       <r>    -2.6225    43.2427   256.5634 </r>
       <r>    -2.4890    55.3586   263.9541 </r>
       <r>    -2.3555    59.6526   271.9180 </r>
       <r>    -2.2220    60.5713   280.0046 </r>
       <r>    -2.0885    69.3999   289.2699 </r>
       <r>    -1.9550    75.4782   299.3467 </r>
       <r>    -1.8215    77.4692   309.6893 </r>
       <r>    -1.6880    74.8103   319.6769 </r>
       <r>    -1.5545    66.6179   328.5708 </r>
       <r>    -1.4210    52.1849   335.5377 </r>
       <r>    -1.2875    47.5407   341.8847 </r>
       <r>    -1.1540     0.8636   342.0000 </r>
       <r>    -1.0205     0.0000   342.0000 </r>
       <r>    -0.8869     0.0052   342.0007 </r>
       <r>    -0.7534    13.1936   343.7621 </r>
       <r>    -0.6199    65.7568   352.5410 </r>
       <r>    -0.4864    42.5622   358.2233 </r>
       <r>    -0.3529    13.3047   359.9996 </r>
       <r>    -0.2194     0.0032   360.0000 </r>
       <r>    -0.0859     0.0000   360.0000 </r>
       <r>     0.0476     0.0000   360.0000 </r>
       <r>     0.1811     0.0000   360.0000 </r>
       <r>     0.3146     0.0000   360.0000 </r>
       <r>     0.4481     0.0000   360.0000 </r>
       <r>     0.5816     0.0000   360.0000 </r>
       <r>     0.7151     0.0000   360.0000 </r>
       <r>     0.8486     0.0696   360.0093 </r>
       <r>     0.9821    26.0675   363.4895 </r>
       <r>     1.1156   139.8381   382.1587 </r>
       <r>     1.2491   321.1704   425.0368 </r>
       <r>     1.3827   319.9480   467.7517 </r>
       <r>     1.5162    91.6983   479.9939 </r>
       <r>     1.6497     0.0455   480.0000 </r>
       <r>     1.7832     0.0000   480.0000 </r>
       <r>     1.9167     0.0000   480.0000 </r>
       <r>     2.0502     0.0000   480.0000 </r>
       <r>     2.1837     0.0000   480.0000 </r>
       <r>     2.3172     0.0000   480.0000 </r>
       <r>     2.4507     0.0000   480.0000 </r>
       <r>     2.5842     0.0000   480.0000 </r>
       <r>     2.7177     0.0000   480.0000 </r>
       <r>     2.8512     0.0000   480.0000 </r>
       <r>     2.9847     0.0000   480.0000 </r>
       <r>     3.1182     0.0000   480.0000 </r>
       <r>     3.2517     0.0000   480.0000 </r>
      </set>
     </set>
    </array>
   </total>
  </dos>
 </calculation>
 <structure name="finalpos" >
  <crystal>
   <varray name="basis" >
    <v>      11.59820000       0.00000000       0.00000000 </v>
    <v>      -5.79910000      10.04433584       0.00000000 </v>
    <v>       0.00000000       0.00000000      21.04820000 </v>
   </varray>
   <i name="volume">   2452.03565189 </i>
   <varray name="rec_basis" >
    <v>       0.08622028       0.04977930       0.00000000 </v>
    <v>       0.00000000       0.09955860       0.00000000 </v>
    <v>       0.00000000       0.00000000       0.04751000 </v>
   </varray>
  </crystal>
  <varray name="positions" >
   <v>       0.99999978       0.00000022       0.46319348 </v>
   <v>       0.22222140       0.11111018       0.31244620 </v>
   <v>       0.11111000       0.22222000       0.15999000 </v>
   <v>       0.33333452       0.00000031       0.46319328 </v>
   <v>       0.55555598       0.11111075       0.31244512 </v>
   <v>       0.44444000       0.22222000       0.15999000 </v>
   <v>       0.66666667       0.00000032       0.46319313 </v>
   <v>       0.88888898       0.11111102       0.31244634 </v>
   <v>       0.77778000       0.22222000       0.15999000 </v>
   <v>       0.99999968       0.33333333       0.46319313 </v>
   <v>       0.22222166       0.44444314       0.31244495 </v>
   <v>       0.11111000       0.55556000       0.15999000 </v>
   <v>       0.33333444       0.33333341       0.46319293 </v>
   <v>       0.55555628       0.44444372       0.31244385 </v>
   <v>       0.44444000       0.55556000       0.15999000 </v>
   <v>       0.66666661       0.33333339       0.46319274 </v>
   <v>       0.88888925       0.44444402       0.31244512 </v>
   <v>       0.77778000       0.55556000       0.15999000 </v>
   <v>       0.99999969       0.66666548       0.46319328 </v>
   <v>       0.22222226       0.77777774       0.31244601 </v>
   <v>       0.11111000       0.88889000       0.15999000 </v>
   <v>       0.33333443       0.66666557       0.46319305 </v>
   <v>       0.55555686       0.77777834       0.31244495 </v>
   <v>       0.44444000       0.88889000       0.15999000 </v>
   <v>       0.66666659       0.66666556       0.46319293 </v>
   <v>       0.88888982       0.77777860       0.31244620 </v>
   <v>       0.77778000       0.88889000       0.15999000 </v>
   <v>       0.00000000       0.00000000       0.12250000 </v>
   <v>       0.11110981       0.22222023       0.27421520 </v>
   <v>       0.22222413       0.11111224       0.42446511 </v>
   <v>       0.11111000       0.22222000       0.04751000 </v>
   <v>       0.11111096       0.22222219       0.50036287 </v>
   <v>       0.00000034       0.99999966       0.35101298 </v>
   <v>       0.22222000       0.11111000       0.19748000 </v>
   <v>       0.33333000       0.00000000       0.12250000 </v>
   <v>       0.44444214       0.22221877       0.27421355 </v>
   <v>       0.55555552       0.11111185       0.42446459 </v>
   <v>       0.44444000       0.22222000       0.04751000 </v>
   <v>       0.44444504       0.22222308       0.50036367 </v>
   <v>       0.33333303       0.99999845       0.35101180 </v>
   <v>       0.55556000       0.11111000       0.19748000 </v>
   <v>       0.66667000       0.00000000       0.12250000 </v>
   <v>       0.77777882       0.22222118       0.27421541 </v>
   <v>       0.88888811       0.11111189       0.42446497 </v>
   <v>       0.77778000       0.22222000       0.04751000 </v>
   <v>       0.77777712       0.22222288       0.50036312 </v>
   <v>       0.66666492       0.99999824       0.35101151 </v>
   <v>       0.88889000       0.11111000       0.19748000 </v>
   <v>       0.00000000       0.33333000       0.12250000 </v>
   <v>       0.11111222       0.55555690       0.27421333 </v>
   <v>       0.22222416       0.44444484       0.42446473 </v>
   <v>       0.11111000       0.55556000       0.04751000 </v>
   <v>       0.11111080       0.55555428       0.50036342 </v>
   <v>       0.00000176       0.33333508       0.35101151 </v>
   <v>       0.22222000       0.44444000       0.19748000 </v>
   <v>       0.33333000       0.33333000       0.12250000 </v>
   <v>       0.44444456       0.55555544       0.27421167 </v>
   <v>       0.55555555       0.44444445       0.42446420 </v>
   <v>       0.44444000       0.55556000       0.04751000 </v>
   <v>       0.44444488       0.55555512       0.50036423 </v>
   <v>       0.33333444       0.33333388       0.35101032 </v>
   <v>       0.55556000       0.44444000       0.19748000 </v>
   <v>       0.66667000       0.33333000       0.12250000 </v>
   <v>       0.77778123       0.55555786       0.27421355 </v>
   <v>       0.88888815       0.44444448       0.42446459 </v>
   <v>       0.77778000       0.55556000       0.04751000 </v>
   <v>       0.77777692       0.55555496       0.50036367 </v>
   <v>       0.66666634       0.33333366       0.35101002 </v>
   <v>       0.88889000       0.44444000       0.19748000 </v>
   <v>       0.00000000       0.66667000       0.12250000 </v>
   <v>       0.11111076       0.88888924       0.27421498 </v>
   <v>       0.22222378       0.77777622       0.42446524 </v>
   <v>       0.11111000       0.88889000       0.04751000 </v>
   <v>       0.11111168       0.88888832       0.50036262 </v>
   <v>       0.00000155       0.66666697       0.35101180 </v>
   <v>       0.22222000       0.77778000       0.19748000 </v>
   <v>       0.33333000       0.66667000       0.12250000 </v>
   <v>       0.44444310       0.88888778       0.27421333 </v>
   <v>       0.55555516       0.77777584       0.42446473 </v>
   <v>       0.44444000       0.88889000       0.04751000 </v>
   <v>       0.44444572       0.88888920       0.50036342 </v>
   <v>       0.33333423       0.66666577       0.35101060 </v>
   <v>       0.55556000       0.77778000       0.19748000 </v>
   <v>       0.66667000       0.66667000       0.12250000 </v>
   <v>       0.77777977       0.88889019       0.27421520 </v>
   <v>       0.88888776       0.77777587       0.42446511 </v>
   <v>       0.77778000       0.88889000       0.04751000 </v>
   <v>       0.77777781       0.88888904       0.50036287 </v>
   <v>       0.66666612       0.66666556       0.35101032 </v>
   <v>       0.88889000       0.77778000       0.19748000 </v>
  </varray>
  <varray name="selective"  type="logical" >
   <v type="logical" >  T  T  T </v>
   <v type="logical" >  T  T  T </v>
   <v type="logical" >  F  F  F </v>
   <v type="logical" >  T  T  T </v>
   <v type="logical" >  T  T  T </v>
   <v type="logical" >  F  F  F </v>
   <v type="logical" >  T  T  T </v>
   <v type="logical" >  T  T  T </v>
   <v type="logical" >  F  F  F </v>
   <v type="logical" >  T  T  T </v>
   <v type="logical" >  T  T  T </v>
   <v type="logical" >  F  F  F </v>
   <v type="logical" >  T  T  T </v>
   <v type="logical" >  T  T  T </v>
   <v type="logical" >  F  F  F </v>
   <v type="logical" >  T  T  T </v>
   <v type="logical" >  T  T  T </v>
   <v type="logical" >  F  F  F </v>
   <v type="logical" >  T  T  T </v>
   <v type="logical" >  T  T  T </v>
   <v type="logical" >  F  F  F </v>
   <v type="logical" >  T  T  T </v>
   <v type="logical" >  T  T  T </v>
   <v type="logical" >  F  F  F </v>
   <v type="logical" >  T  T  T </v>
   <v type="logical" >  T  T  T </v>
   <v type="logical" >  F  F  F </v>
   <v type="logical" >  F  F  F </v>
   <v type="logical" >  T  T  T </v>
   <v type="logical" >  T  T  T </v>
   <v type="logical" >  F  F  F </v>
   <v type="logical" >  T  T  T </v>
   <v type="logical" >  T  T  T </v>
   <v type="logical" >  F  F  F </v>
   <v type="logical" >  F  F  F </v>
   <v type="logical" >  T  T  T </v>
   <v type="logical" >  T  T  T </v>
   <v type="logical" >  F  F  F </v>
   <v type="logical" >  T  T  T </v>
   <v type="logical" >  T  T  T </v>
   <v type="logical" >  F  F  F </v>
   <v type="logical" >  F  F  F </v>
   <v type="logical" >  T  T  T </v>
   <v type="logical" >  T  T  T </v>
   <v type="logical" >  F  F  F </v>
   <v type="logical" >  T  T  T </v>
   <v type="logical" >  T  T  T </v>
   <v type="logical" >  F  F  F </v>
   <v type="logical" >  F  F  F </v>
   <v type="logical" >  T  T  T </v>
   <v type="logical" >  T  T  T </v>
   <v type="logical" >  F  F  F </v>
   <v type="logical" >  T  T  T </v>
   <v type="logical" >  T  T  T </v>
   <v type="logical" >  F  F  F </v>
   <v type="logical" >  F  F  F </v>
   <v type="logical" >  T  T  T </v>
   <v type="logical" >  T  T  T </v>
   <v type="logical" >  F  F  F </v>
   <v type="logical" >  T  T  T </v>
   <v type="logical" >  T  T  T </v>
   <v type="logical" >  F  F  F </v>
   <v type="logical" >  F  F  F </v>
   <v type="logical" >  T  T  T </v>
   <v type="logical" >  T  T  T </v>
   <v type="logical" >  F  F  F </v>
   <v type="logical" >  T  T  T </v>
   <v type="logical" >  T  T  T </v>
   <v type="logical" >  F  F  F </v>
   <v type="logical" >  F  F  F </v>
   <v type="logical" >  T  T  T </v>
   <v type="logical" >  T  T  T </v>
   <v type="logical" >  F  F  F </v>
   <v type="logical" >  T  T  T </v>
   <v type="logical" >  T  T  T </v>
   <v type="logical" >  F  F  F </v>
   <v type="logical" >  F  F  F </v>
   <v type="logical" >  T  T  T </v>
   <v type="logical" >  T  T  T </v>
   <v type="logical" >  F  F  F </v>
   <v type="logical" >  T  T  T </v>
   <v type="logical" >  T  T  T </v>
   <v type="logical" >  F  F  F </v>
   <v type="logical" >  F  F  F </v>
   <v type="logical" >  T  T  T </v>
   <v type="logical" >  T  T  T </v>
   <v type="logical" >  F  F  F </v>
   <v type="logical" >  T  T  T </v>
   <v type="logical" >  T  T  T </v>
   <v type="logical" >  F  F  F </v>
  </varray>
  <nose>
   <v>      -3.00000000       0.00000000       0.00010000       0.00010000 </v>
  </nose>
 </structure>
</modeling>
