 running  192 mpi-ranks, on    1 nodes
 distrk:  each k-point on  192 cores,    1 groups
 distr:  one band on    4 cores,   48 groups
 vasp.6.4.3 19Mar24 (build Mar 01 2025 18:03:59) gamma-only                     
  
 POSCAR found type information on POSCAR CeO 
 POSCAR found :  2 types and      90 ions
 Reading from existing POTCAR
 scaLAPACK will be used
 -----------------------------------------------------------------------------
|                                                                             |
|           W    W    AA    RRRRR   N    N  II  N    N   GGGG   !!!           |
|           W    W   A  A   R    R  NN   N  II  NN   N  G    G  !!!           |
|           W    W  A    A  R    R  N N  N  II  N N  N  G       !!!           |
|           W WW W  AAAAAA  RRRRR   N  N N  II  N  N N  G  GGG   !            |
|           WW  WW  A    A  R   R   N   NN  II  N   NN  G    G                |
|           W    W  A    A  R    R  N    N  II  N    N   GGGG   !!!           |
|                                                                             |
|     For optimal performance we recommend to set                             |
|       NCORE = 2 up to number-of-cores-per-socket                            |
|     NCORE specifies how many cores store one orbital (NPAR=cpu/NCORE).      |
|     This setting can greatly improve the performance of VASP for DFT.       |
|     The default, NCORE=1 might be grossly inefficient on modern             |
|     multi-core architectures or massively parallel machines. Do your        |
|     own testing! More info at https://www.vasp.at/wiki/index.php/NCORE      |
|     Unfortunately you need to use the default for GW and RPA                |
|     calculations (for HF NCORE is supported but not extensively tested      |
|     yet).                                                                   |
|                                                                             |
 -----------------------------------------------------------------------------

 Reading from existing POTCAR
 -----------------------------------------------------------------------------
|                                                                             |
|               ----> ADVICE to this user running VASP <----                  |
|                                                                             |
|     You have a (more or less) 'large supercell' and for larger cells it     |
|     might be more efficient to use real-space projection operators.         |
|     Therefore, try LREAL= Auto in the INCAR file.                           |
|     Mind: For very accurate calculation, you might also keep the            |
|     reciprocal projection scheme (i.e. LREAL=.FALSE.).                      |
|                                                                             |
 -----------------------------------------------------------------------------

 LDA part: xc-table for (Slater+PW92), standard interpolation
 POSCAR, INCAR and KPOINTS ok, starting setup
 FFT: planning ... GRIDC
 FFT: planning ... GRID_SOFT
 FFT: planning ... GRID
 WAVECAR not read
 WARNING: random wavefunctions but no delay for mixing, default for NELMDL
 entering main loop
       N       E                     dE             d eps       ncg     rms          rms(c)
DAV:   1     0.114340253736E+05    0.11434E+05   -0.29315E+05   864   0.164E+03
DAV:   2     0.354385853812E+04   -0.78902E+04   -0.72213E+04  1008   0.429E+02
DAV:   3    -0.430102103310E+02   -0.35869E+04   -0.35070E+04  1296   0.264E+02
DAV:   4    -0.800097253733E+03   -0.75709E+03   -0.74789E+03  1344   0.118E+02
DAV:   5    -0.860494246988E+03   -0.60397E+02   -0.59577E+02  1488   0.380E+01    0.142E+02
DAV:   6    -0.870666764627E+03   -0.10173E+02   -0.27530E+03  1200   0.624E+01    0.193E+02
DAV:   7    -0.700095971480E+03    0.17057E+03   -0.85396E+03  1488   0.215E+02    0.150E+02
DAV:   8    -0.887026917179E+03   -0.18693E+03   -0.15870E+03  1344   0.856E+01    0.117E+02
DAV:   9    -0.839484595493E+03    0.47542E+02   -0.33066E+02  1440   0.390E+01    0.137E+02
DAV:  10    -0.824644740594E+03    0.14840E+02   -0.44733E+02  1344   0.466E+01    0.143E+02
DAV:  11    -0.834611249341E+03   -0.99665E+01   -0.66650E+02  1344   0.285E+01    0.156E+02
DAV:  12    -0.841488441180E+03   -0.68772E+01   -0.22834E+02  1488   0.193E+01    0.159E+02
DAV:  13    -0.845849511453E+03   -0.43611E+01   -0.59120E+01  1536   0.915E+00    0.159E+02
DAV:  14    -0.846366570477E+03   -0.51706E+00   -0.48139E+00  1536   0.358E+00    0.160E+02
DAV:  15    -0.849831812911E+03   -0.34652E+01   -0.10139E+01  1632   0.222E+00    0.162E+02
DAV:  16    -0.870909732347E+03   -0.21078E+02   -0.56307E+01  1344   0.644E+00    0.170E+02
DAV:  17    -0.870789541742E+03    0.12019E+00   -0.21765E+02  1392   0.235E+01    0.172E+02
DAV:  18    -0.895620259000E+03   -0.24831E+02   -0.84134E+01  1488   0.173E+01    0.189E+02
DAV:  19    -0.909842635195E+03   -0.14222E+02   -0.53182E+01  1536   0.108E+01    0.195E+02
DAV:  20    -0.924675587880E+03   -0.14833E+02   -0.10182E+01  1632   0.580E+00    0.201E+02
DAV:  21    -0.912234314587E+03    0.12441E+02   -0.41286E+00  1536   0.424E+00    0.198E+02
DAV:  22    -0.824765473823E+03    0.87469E+02   -0.15173E+02  1152   0.175E+01    0.157E+02
DAV:  23    -0.793553026890E+03    0.31212E+02   -0.12533E+02  1536   0.200E+01    0.133E+02
DAV:  24    -0.762298062373E+03    0.31255E+02   -0.13330E+02  1248   0.174E+01    0.906E+01
DAV:  25    -0.776605610590E+03   -0.14308E+02   -0.31611E+02  1248   0.205E+01    0.604E+01
DAV:  26    -0.809236629123E+03   -0.32631E+02   -0.40436E+02  1344   0.144E+01    0.737E+01
DAV:  27    -0.841288971891E+03   -0.32052E+02   -0.19020E+02  1344   0.160E+01    0.101E+02
DAV:  28    -0.875466838271E+03   -0.34178E+02   -0.18156E+02  1296   0.115E+01    0.120E+02
DAV:  29    -0.969556434639E+03   -0.94090E+02   -0.18537E+02  1392   0.168E+01    0.159E+02
DAV:  30    -0.105469913897E+04   -0.85143E+02   -0.11906E+02  1344   0.136E+01    0.198E+02
DAV:  31    -0.107046167868E+04   -0.15763E+02   -0.90181E+01  1392   0.789E+00    0.196E+02
DAV:  32    -0.109221548140E+04   -0.21754E+02   -0.11147E+01  1584   0.518E+00    0.196E+02
DAV:  33    -0.109275555997E+04   -0.54008E+00   -0.19891E+00  1632   0.265E+00    0.191E+02
DAV:  34    -0.103314196321E+04    0.59614E+02   -0.20237E+01  1152   0.738E+00    0.157E+02
DAV:  35    -0.940760391184E+03    0.92382E+02   -0.61246E+01  1392   0.115E+01    0.115E+02
DAV:  36    -0.850898158087E+03    0.89862E+02   -0.14026E+02  1296   0.161E+01    0.770E+01
DAV:  37    -0.820383945629E+03    0.30514E+02   -0.85542E+01  1440   0.960E+00    0.603E+01
DAV:  38    -0.827978634276E+03   -0.75947E+01   -0.84228E+01  1488   0.709E+00    0.674E+01
DAV:  39    -0.841876850773E+03   -0.13898E+02   -0.13725E+01  1152   0.533E+00    0.818E+01
DAV:  40    -0.849499607236E+03   -0.76228E+01   -0.99757E+00  1440   0.312E+00    0.894E+01
DAV:  41    -0.821521412198E+03    0.27978E+02   -0.12823E+01  1344   0.559E+00    0.850E+01
DAV:  42    -0.811674557603E+03    0.98469E+01   -0.69236E+00  1584   0.287E+00    0.804E+01
DAV:  43    -0.808242109926E+03    0.34324E+01   -0.15650E+01  1296   0.286E+00    0.842E+01
DAV:  44    -0.796156036830E+03    0.12086E+02   -0.13399E+01  1344   0.309E+00    0.787E+01
DAV:  45    -0.789188862696E+03    0.69672E+01   -0.31151E+00  1488   0.210E+00    0.761E+01
DAV:  46    -0.785603920909E+03    0.35849E+01   -0.52351E-01  1632   0.153E+00    0.764E+01
DAV:  47    -0.779929910839E+03    0.56740E+01   -0.72800E-01  1488   0.152E+00    0.731E+01
DAV:  48    -0.781637801197E+03   -0.17079E+01   -0.24641E+00  1104   0.190E+00    0.768E+01
DAV:  49    -0.768459550620E+03    0.13178E+02   -0.14164E+01  1248   0.403E+00    0.706E+01
DAV:  50    -0.770367699562E+03   -0.19081E+01   -0.16593E+01  1584   0.336E+00    0.765E+01
DAV:  51    -0.742787908442E+03    0.27580E+02   -0.17607E+02  1296   0.214E+01    0.402E+01
DAV:  52    -0.743812746748E+03   -0.10248E+01   -0.12071E+01  1344   0.725E+00    0.399E+01
DAV:  53    -0.743567410662E+03    0.24534E+00   -0.90634E-01  1680   0.166E+00    0.399E+01
DAV:  54    -0.743339301468E+03    0.22811E+00   -0.13255E-01  1536   0.671E-01    0.398E+01
DAV:  55    -0.744397067930E+03   -0.10578E+01   -0.40455E-01  1344   0.120E+00    0.400E+01
DAV:  56    -0.726288772832E+03    0.18108E+02   -0.10077E+02  1248   0.190E+01    0.492E+01
DAV:  57    -0.724879925882E+03    0.14088E+01   -0.59529E+01  1488   0.129E+01    0.373E+01
DAV:  58    -0.725569978183E+03   -0.69005E+00   -0.25733E+01  1344   0.810E+00    0.331E+01
DAV:  59    -0.723954528383E+03    0.16154E+01   -0.64856E+00  1296   0.359E+00    0.311E+01
DAV:  60    -0.722922188305E+03    0.10323E+01   -0.19470E+00  1392   0.180E+00    0.304E+01
DAV:  61    -0.728232626736E+03   -0.53104E+01   -0.80371E+01  1296   0.144E+01    0.473E+01
DAV:  62    -0.720857406994E+03    0.73752E+01   -0.55773E+01  1392   0.144E+01    0.321E+01
DAV:  63    -0.720283163670E+03    0.57424E+00   -0.31290E+01  1344   0.944E+00    0.326E+01
DAV:  64    -0.718614772628E+03    0.16684E+01   -0.82405E+00  1296   0.416E+00    0.287E+01
DAV:  65    -0.717859084049E+03    0.75569E+00   -0.14761E+00  1392   0.231E+00    0.273E+01
DAV:  66    -0.721342376308E+03   -0.34833E+01   -0.44517E+01  1248   0.117E+01    0.334E+01
DAV:  67    -0.717902744203E+03    0.34396E+01   -0.15869E+01  1488   0.983E+00    0.269E+01
DAV:  68    -0.717852325437E+03    0.50419E-01   -0.73566E+00  1440   0.428E+00    0.245E+01
DAV:  69    -0.717837473007E+03    0.14852E-01   -0.68840E-01  1440   0.145E+00    0.234E+01
DAV:  70    -0.718799582761E+03   -0.96211E+00   -0.29174E+00  1440   0.177E+00    0.226E+01
DAV:  71    -0.720945675026E+03   -0.21461E+01   -0.45854E+00  1344   0.369E+00    0.267E+01
DAV:  72    -0.720990995598E+03   -0.45321E-01   -0.27171E+00  1392   0.272E+00    0.264E+01
DAV:  73    -0.722022193988E+03   -0.10312E+01   -0.19554E+00  1296   0.192E+00    0.292E+01
DAV:  74    -0.722338047627E+03   -0.31585E+00   -0.54753E-01  1296   0.109E+00    0.283E+01
DAV:  75    -0.722696946528E+03   -0.35890E+00   -0.28232E-01  1392   0.831E-01    0.288E+01
DAV:  76    -0.721901845048E+03    0.79510E+00   -0.86427E+00  1296   0.558E+00    0.245E+01
DAV:  77    -0.721652860559E+03    0.24898E+00   -0.39481E+00  1344   0.318E+00    0.236E+01
DAV:  78    -0.721655106701E+03   -0.22461E-02   -0.78277E-01  1344   0.137E+00    0.233E+01
DAV:  79    -0.721655789463E+03   -0.68276E-03   -0.51794E-01  1344   0.137E+00    0.236E+01
DAV:  80    -0.721504798170E+03    0.15099E+00   -0.69126E-01  1296   0.149E+00    0.228E+01
DAV:  81    -0.722575301293E+03   -0.10705E+01   -0.11324E+01  1296   0.491E+00    0.272E+01
DAV:  82    -0.721061704731E+03    0.15136E+01   -0.45857E+00  1296   0.237E+00    0.206E+01
DAV:  83    -0.720396995309E+03    0.66471E+00   -0.66692E-01  1344   0.119E+00    0.198E+01
DAV:  84    -0.719682424545E+03    0.71457E+00   -0.33395E-01  1344   0.118E+00    0.194E+01
DAV:  85    -0.718935015490E+03    0.74741E+00   -0.44386E-01  1344   0.997E-01    0.183E+01
DAV:  86    -0.718206617647E+03    0.72840E+00   -0.42121E+00  1344   0.246E+00    0.226E+01
DAV:  87    -0.717694514913E+03    0.51210E+00   -0.76255E-01  1392   0.112E+00    0.216E+01
DAV:  88    -0.717395047267E+03    0.29947E+00   -0.45069E-01  1440   0.944E-01    0.192E+01
DAV:  89    -0.716712357466E+03    0.68269E+00   -0.51292E-01  1440   0.117E+00    0.177E+01
DAV:  90    -0.716162438179E+03    0.54992E+00   -0.39505E-01  1392   0.111E+00
 -----------------------------------------------------------------------------
|                                                                             |
|           W    W    AA    RRRRR   N    N  II  N    N   GGGG   !!!           |
|           W    W   A  A   R    R  NN   N  II  NN   N  G    G  !!!           |
|           W    W  A    A  R    R  N N  N  II  N N  N  G       !!!           |
|           W WW W  AAAAAA  RRRRR   N  N N  II  N  N N  G  GGG   !            |
|           WW  WW  A    A  R   R   N   NN  II  N   NN  G    G                |
|           W    W  A    A  R    R  N    N  II  N    N   GGGG   !!!           |
|                                                                             |
|     The electronic self-consistency was not achieved in the given           |
|     number of steps (NELM). The forces and other quantities evaluated       |
|     might not be reliable so examine the results carefully. If you find     |
|     spurious results, we suggest increasing NELM, if you were close to      |
|     convergence or switching to a different ALGO or adjusting the           |
|     density mixing parameters otherwise.                                    |
|                                                                             |
 -----------------------------------------------------------------------------

   1 F= -.71616244E+03 E0= -.71609108E+03  d E =-.716162E+03
 curvature:   0.00 expect dE= 0.000E+00 dE for cont linesearch  0.000E+00
 trial: gam= 0.00000 g(F)=  0.350E+01 g(S)=  0.000E+00 ort = 0.000E+00 (trialstep = 0.100E+01)
 search vector abs. value=  0.350E+01
 bond charge predicted
       N       E                     dE             d eps       ncg     rms          rms(c)
DAV:   1    -0.724123198111E+03   -0.74108E+01   -0.84130E+02  1104   0.523E+01    0.424E+01
DAV:   2    -0.857836493115E+03   -0.13371E+03   -0.14386E+03  1632   0.330E+01    0.124E+02
DAV:   3    -0.771821402854E+03    0.86015E+02   -0.16170E+03  1392   0.133E+02    0.562E+01
DAV:   4    -0.760761595591E+03    0.11060E+02   -0.36080E+02  1344   0.223E+01    0.513E+01
DAV:   5    -0.733521542711E+03    0.27240E+02   -0.80623E+01  1248   0.121E+01    0.348E+01
DAV:   6    -0.731070401523E+03    0.24511E+01   -0.54104E+01  1344   0.652E+00    0.364E+01
DAV:   7    -0.721060450354E+03    0.10010E+02   -0.31853E+01  1344   0.812E+00    0.208E+01
DAV:   8    -0.717818053584E+03    0.32424E+01   -0.31925E+01  1392   0.711E+00    0.220E+01
DAV:   9    -0.719336819088E+03   -0.15188E+01   -0.50656E+01  1488   0.523E+00    0.347E+01
DAV:  10    -0.716702958935E+03    0.26339E+01   -0.49944E+01  1488   0.351E+00    0.160E+01
DAV:  11    -0.715281115291E+03    0.14218E+01   -0.10361E+01  1296   0.658E+00    0.121E+01
DAV:  12    -0.716068978442E+03   -0.78786E+00   -0.19301E+01  1344   0.678E+00    0.182E+01
DAV:  13    -0.719169861262E+03   -0.31009E+01   -0.42180E+01  1440   0.295E+00    0.291E+01
DAV:  14    -0.716525125804E+03    0.26447E+01   -0.16988E+01  1488   0.292E+00    0.229E+01
DAV:  15    -0.715977338537E+03    0.54779E+00   -0.22323E+01  1392   0.214E+00    0.170E+01
DAV:  16    -0.715425784616E+03    0.55155E+00   -0.15350E+00  1296   0.137E+00    0.980E+00
DAV:  17    -0.715281539982E+03    0.14424E+00   -0.66982E-01  1296   0.122E+00    0.728E+00
DAV:  18    -0.715392588062E+03   -0.11105E+00   -0.58218E+00  1152   0.191E+00    0.102E+01
DAV:  19    -0.715464090586E+03   -0.71503E-01   -0.13801E+00  1392   0.119E+00    0.565E+00
DAV:  20    -0.715340314516E+03    0.12378E+00   -0.14925E-01  1296   0.735E-01    0.515E+00
DAV:  21    -0.715245280194E+03    0.95034E-01   -0.26503E-01  1488   0.515E-01    0.447E+00
DAV:  22    -0.715194683109E+03    0.50597E-01   -0.77470E-02  1344   0.389E-01    0.279E+00
DAV:  23    -0.715177415746E+03    0.17267E-01   -0.70704E-02  1584   0.327E-01    0.194E+00
DAV:  24    -0.715178645064E+03   -0.12293E-02   -0.60188E-02  1296   0.238E-01    0.157E+00
DAV:  25    -0.715176642624E+03    0.20024E-02   -0.18089E-02  1344   0.228E-01    0.139E+00
DAV:  26    -0.715183347309E+03   -0.67047E-02   -0.65875E-02  1296   0.237E-01    0.210E+00
DAV:  27    -0.715168230364E+03    0.15117E-01   -0.34486E-02  1392   0.155E-01    0.817E-01
DAV:  28    -0.715169068310E+03   -0.83795E-03   -0.85717E-03  1296   0.980E-02    0.409E-01
DAV:  29    -0.715170452039E+03   -0.13837E-02   -0.25926E-03  1344   0.706E-02    0.493E-01
DAV:  30    -0.715170635880E+03   -0.18384E-03   -0.23038E-03  1344   0.707E-02    0.456E-01
DAV:  31    -0.715170858156E+03   -0.22228E-03   -0.20580E-03  1392   0.509E-02    0.393E-01
DAV:  32    -0.715171223602E+03   -0.36545E-03   -0.11781E-03  1344   0.381E-02    0.187E-01
DAV:  33    -0.715171663792E+03   -0.44019E-03   -0.29124E-04  1536   0.260E-02    0.124E-01
DAV:  34    -0.715171890781E+03   -0.22699E-03   -0.14440E-04  1536   0.178E-02    0.838E-02
DAV:  35    -0.715172168860E+03   -0.27808E-03   -0.63621E-05  1392   0.125E-02    0.753E-02
DAV:  36    -0.715172306653E+03   -0.13779E-03   -0.29459E-05  1536   0.921E-03    0.878E-02
DAV:  37    -0.715172417403E+03   -0.11075E-03   -0.45636E-05  1296   0.779E-03    0.775E-02
DAV:  38    -0.715172494254E+03   -0.76852E-04   -0.13649E-05  1344   0.504E-03    0.660E-02
DAV:  39    -0.715172667860E+03   -0.17361E-03   -0.47152E-05  1296   0.700E-03    0.642E-02
DAV:  40    -0.715172798951E+03   -0.13109E-03   -0.10445E-04  1344   0.809E-03    0.376E-02
DAV:  41    -0.715172841544E+03   -0.42593E-04   -0.39188E-05  1248   0.481E-03    0.194E-02
DAV:  42    -0.715172872537E+03   -0.30993E-04   -0.95637E-06  1440   0.351E-03    0.129E-02
DAV:  43    -0.715172887365E+03   -0.14828E-04   -0.42343E-06  1488   0.198E-03    0.128E-02
DAV:  44    -0.715172914813E+03   -0.27448E-04   -0.87172E-06  1248   0.299E-03    0.196E-02
DAV:  45    -0.715172925420E+03   -0.10607E-04   -0.22763E-06  1392   0.158E-03    0.904E-03
DAV:  46    -0.715172931571E+03   -0.61507E-05   -0.57820E-07  1392   0.111E-03    0.605E-03
DAV:  47    -0.715172926682E+03    0.48891E-05   -0.11396E-06  1344   0.116E-03    0.111E-02
DAV:  48    -0.715172930165E+03   -0.34836E-05   -0.14793E-07  1296   0.601E-04    0.989E-03
DAV:  49    -0.715172933315E+03   -0.31492E-05   -0.51983E-07  1104   0.590E-04    0.431E-03
DAV:  50    -0.715172936106E+03   -0.27913E-05   -0.11137E-07  1104   0.464E-04    0.283E-03
DAV:  51    -0.715172937809E+03   -0.17035E-05   -0.33186E-08   912   0.336E-04    0.235E-03
DAV:  52    -0.715172938636E+03   -0.82618E-06   -0.21650E-07  1152   0.455E-04    0.175E-03
DAV:  53    -0.715172939193E+03   -0.55779E-06   -0.36073E-08   816   0.295E-04    0.854E-04
DAV:  54    -0.715172939318E+03   -0.12503E-06   -0.36731E-09   576   0.171E-04    0.770E-04
DAV:  55    -0.715172939408E+03   -0.89443E-07   -0.41058E-09   720   0.127E-04    0.644E-04
DAV:  56    -0.715172939476E+03   -0.67921E-07   -0.31549E-09   576   0.136E-04    0.623E-04
DAV:  57    -0.715172939502E+03   -0.26121E-07   -0.32884E-09   672   0.108E-04    0.504E-04
DAV:  58    -0.715172939520E+03   -0.18495E-07   -0.11808E-09   576   0.957E-05    0.457E-04
DAV:  59    -0.715172939535E+03   -0.14639E-07   -0.69710E-10   576   0.639E-05    0.505E-04
DAV:  60    -0.715172939544E+03   -0.91386E-08   -0.24624E-10   576   0.533E-05
   2 F= -.71517294E+03 E0= -.71513034E+03  d E =0.989499E+00
 trial-energy change:    0.989499  1 .order   -1.854939   -3.504685   -0.205192
 step:   1.0622(harm=  1.0622)  dis= 0.13757  next Energy=  -718.023757 (dE=-0.186E+01)
 bond charge predicted
       N       E                     dE             d eps       ncg     rms          rms(c)
DAV:   1    -0.715191734586E+03   -0.18795E-01   -0.31698E+00   960   0.247E+00    0.341E+00
DAV:   2    -0.720794491369E+03   -0.56028E+01   -0.38227E+01  1536   0.314E+00    0.345E+01
DAV:   3    -0.715690274824E+03    0.51042E+01   -0.30137E+01  1392   0.257E+00    0.186E+01
DAV:   4    -0.715104286057E+03    0.58599E+00   -0.58949E+00  1296   0.122E+00    0.300E+00
DAV:   5    -0.715223160168E+03   -0.11887E+00   -0.72667E-01  1392   0.876E-01    0.499E+00
DAV:   6    -0.715223966718E+03   -0.80655E-03   -0.82419E-01  1440   0.581E-01    0.511E+00
DAV:   7    -0.715256902934E+03   -0.32936E-01   -0.92732E-01  1296   0.432E-01    0.624E+00
DAV:   8    -0.715176022284E+03    0.80881E-01   -0.62425E-01  1296   0.439E-01    0.245E+00
DAV:   9    -0.715200283582E+03   -0.24261E-01   -0.16278E-01  1200   0.320E-01    0.260E+00
DAV:  10    -0.715199684194E+03    0.59939E-03   -0.21977E-01  1296   0.407E-01    0.227E+00
DAV:  11    -0.715203313891E+03   -0.36297E-02   -0.20939E-01  1248   0.398E-01    0.249E+00
DAV:  12    -0.715177661051E+03    0.25653E-01   -0.11192E-01  1248   0.386E-01    0.886E-01
DAV:  13    -0.715181121267E+03   -0.34602E-02   -0.15634E-02  1344   0.221E-01    0.516E-01
DAV:  14    -0.715181434285E+03   -0.31302E-03   -0.37859E-03  1344   0.105E-01    0.284E-01
DAV:  15    -0.715181794762E+03   -0.36048E-03   -0.32299E-03  1488   0.832E-02    0.180E-01
DAV:  16    -0.715181898821E+03   -0.10406E-03   -0.17496E-03  1392   0.743E-02    0.128E-01
DAV:  17    -0.715181900651E+03   -0.18304E-05   -0.51804E-04  1296   0.402E-02    0.799E-02
DAV:  18    -0.715181927985E+03   -0.27334E-04   -0.11651E-04  1440   0.203E-02    0.561E-02
DAV:  19    -0.715181950830E+03   -0.22845E-04   -0.54843E-05  1440   0.129E-02    0.449E-02
DAV:  20    -0.715181956535E+03   -0.57050E-05   -0.26408E-05  1488   0.957E-03    0.298E-02
DAV:  21    -0.715181960228E+03   -0.36929E-05   -0.15135E-05  1536   0.623E-03    0.168E-02
DAV:  22    -0.715181963924E+03   -0.36960E-05   -0.51192E-06  1536   0.422E-03    0.102E-02
DAV:  23    -0.715181967334E+03   -0.34104E-05   -0.21477E-06  1488   0.248E-03    0.385E-03
DAV:  24    -0.715181971274E+03   -0.39398E-05   -0.99337E-07  1392   0.178E-03    0.255E-03
DAV:  25    -0.715181973312E+03   -0.20377E-05   -0.37426E-07  1488   0.122E-03    0.218E-03
DAV:  26    -0.715181974635E+03   -0.13229E-05   -0.13530E-07  1152   0.725E-04    0.168E-03
DAV:  27    -0.715181976073E+03   -0.14382E-05   -0.57538E-08   864   0.501E-04    0.100E-03
DAV:  28    -0.715181977130E+03   -0.10569E-05   -0.32189E-08   816   0.411E-04    0.991E-04
DAV:  29    -0.715181978913E+03   -0.17837E-05   -0.63393E-08   960   0.408E-04    0.736E-04
DAV:  30    -0.715181979948E+03   -0.10349E-05   -0.21542E-08   816   0.296E-04    0.587E-04
DAV:  31    -0.715181980882E+03   -0.93406E-06   -0.15308E-08   816   0.218E-04    0.622E-04
DAV:  32    -0.715181981734E+03   -0.85180E-06   -0.13164E-08   672   0.206E-04    0.562E-04
DAV:  33    -0.715181982177E+03   -0.44249E-06   -0.76237E-09   624   0.174E-04    0.507E-04
DAV:  34    -0.715181982464E+03   -0.28691E-06   -0.71146E-09   624   0.160E-04    0.503E-04
DAV:  35    -0.715181982626E+03   -0.16236E-06   -0.46895E-09   768   0.142E-04    0.551E-04
DAV:  36    -0.715181982697E+03   -0.70846E-07   -0.30233E-09   576   0.125E-04    0.445E-04
DAV:  37    -0.715181982703E+03   -0.56389E-08   -0.10021E-09   576   0.965E-05
   3 F= -.71518198E+03 E0= -.71513831E+03  d E =0.980455E+00
 curvature:  -0.53 expect dE=-0.590E+00 dE for cont linesearch -0.110E-02
 trial: gam= 0.29277 g(F)=  0.111E+01 g(S)=  0.000E+00 ort = 0.852E-01 (trialstep = 0.101E+01)
 search vector abs. value=  0.146E+01
 bond charge predicted
       N       E                     dE             d eps       ncg     rms          rms(c)
DAV:   1    -0.715714428632E+03   -0.53245E+00   -0.37517E+02  1008   0.298E+01    0.194E+01
DAV:   2    -0.842119079867E+03   -0.12640E+03   -0.95931E+02  1488   0.373E+01    0.201E+02
DAV:   3    -0.731651970364E+03    0.11047E+03   -0.22041E+03  1440   0.344E+01    0.786E+01
DAV:   4    -0.719277181005E+03    0.12375E+02   -0.53710E+02  1392   0.246E+01    0.330E+01
DAV:   5    -0.721268495206E+03   -0.19913E+01   -0.13284E+02  1344   0.127E+01    0.323E+01
DAV:   6    -0.719051444866E+03    0.22171E+01   -0.51938E+01  1440   0.504E+00    0.214E+01
DAV:   7    -0.718159807665E+03    0.89164E+00   -0.41386E+00  1536   0.219E+00    0.169E+01
DAV:   8    -0.718255892524E+03   -0.96085E-01   -0.63398E+00  1632   0.201E+00    0.219E+01
DAV:   9    -0.719492736914E+03   -0.12368E+01   -0.25492E+01  1248   0.348E+00    0.311E+01
DAV:  10    -0.716622301979E+03    0.28704E+01   -0.36822E+01  1248   0.396E+00    0.113E+01
DAV:  11    -0.716795766795E+03   -0.17346E+00   -0.10029E+01  1344   0.437E+00    0.143E+01
DAV:  12    -0.716962320525E+03   -0.16655E+00   -0.14155E+01  1488   0.269E+00    0.158E+01
DAV:  13    -0.716308896041E+03    0.65342E+00   -0.60297E+00  1392   0.207E+00    0.807E+00
DAV:  14    -0.716361933177E+03   -0.53037E-01   -0.20061E+00  1344   0.165E+00    0.793E+00
DAV:  15    -0.716354856356E+03    0.70768E-02   -0.20554E+00  1296   0.121E+00    0.822E+00
DAV:  16    -0.716181810185E+03    0.17305E+00   -0.14846E+00  1440   0.107E+00    0.502E+00
DAV:  17    -0.716134169709E+03    0.47640E-01   -0.22331E-01  1440   0.788E-01    0.419E+00
DAV:  18    -0.716103095323E+03    0.31074E-01   -0.53173E-02  1440   0.436E-01    0.375E+00
DAV:  19    -0.716059257213E+03    0.43838E-01   -0.11668E-01  1392   0.544E-01    0.326E+00
DAV:  20    -0.716023910547E+03    0.35347E-01   -0.57750E-02  1344   0.428E-01    0.285E+00
DAV:  21    -0.716008240328E+03    0.15670E-01   -0.40144E-02  1392   0.361E-01    0.266E+00
DAV:  22    -0.715997803276E+03    0.10437E-01   -0.44924E-02  1392   0.366E-01    0.249E+00
DAV:  23    -0.715987800393E+03    0.10003E-01   -0.34824E-02  1440   0.292E-01    0.218E+00
DAV:  24    -0.715976589911E+03    0.11210E-01   -0.23029E-02  1392   0.289E-01    0.192E+00
DAV:  25    -0.715960797989E+03    0.15792E-01   -0.20978E-02  1392   0.282E-01    0.161E+00
DAV:  26    -0.715938566239E+03    0.22232E-01   -0.28651E-02  1392   0.372E-01    0.120E+00
DAV:  27    -0.715927452728E+03    0.11114E-01   -0.17216E-02  1392   0.273E-01    0.822E-01
DAV:  28    -0.715921957327E+03    0.54954E-02   -0.92235E-03  1488   0.223E-01    0.614E-01
DAV:  29    -0.715916772735E+03    0.51846E-02   -0.10841E-02  1440   0.262E-01    0.340E-01
DAV:  30    -0.715915669204E+03    0.11035E-02   -0.53366E-03  1632   0.155E-01    0.198E-01
DAV:  31    -0.715915287528E+03    0.38168E-03   -0.18831E-03  1584   0.992E-02    0.115E-01
DAV:  32    -0.715915250290E+03    0.37239E-04   -0.10125E-03  1584   0.718E-02    0.958E-02
DAV:  33    -0.715915389278E+03   -0.13899E-03   -0.82063E-04  1488   0.720E-02    0.123E-01
DAV:  34    -0.715915302528E+03    0.86750E-04   -0.54568E-04  1632   0.493E-02    0.725E-02
DAV:  35    -0.715915282741E+03    0.19787E-04   -0.11098E-04  1632   0.237E-02    0.430E-02
DAV:  36    -0.715915286359E+03   -0.36179E-05   -0.40408E-05  1440   0.124E-02    0.325E-02
DAV:  37    -0.715915308754E+03   -0.22395E-04   -0.26382E-05  1488   0.140E-02    0.356E-02
DAV:  38    -0.715915322305E+03   -0.13551E-04   -0.13365E-05  1584   0.700E-03    0.360E-02
DAV:  39    -0.715915315872E+03    0.64333E-05   -0.10531E-05  1584   0.814E-03    0.294E-02
DAV:  40    -0.715915305979E+03    0.98926E-05   -0.14974E-05  1488   0.118E-02    0.198E-02
DAV:  41    -0.715915306164E+03   -0.18468E-06   -0.73349E-06  1536   0.636E-03    0.147E-02
DAV:  42    -0.715915306266E+03   -0.10223E-06   -0.25890E-06  1584   0.436E-03    0.110E-02
DAV:  43    -0.715915308620E+03   -0.23542E-05   -0.18331E-06  1536   0.368E-03    0.779E-03
DAV:  44    -0.715915312840E+03   -0.42198E-05   -0.90946E-07  1536   0.205E-03    0.548E-03
DAV:  45    -0.715915314325E+03   -0.14847E-05   -0.40644E-07  1488   0.133E-03    0.540E-03
DAV:  46    -0.715915314745E+03   -0.42032E-06   -0.15748E-07  1344   0.960E-04    0.466E-03
DAV:  47    -0.715915315312E+03   -0.56713E-06   -0.21747E-06  1296   0.462E-03    0.192E-03
DAV:  48    -0.715915315546E+03   -0.23349E-06   -0.49135E-07  1392   0.113E-03    0.170E-03
DAV:  49    -0.715915315559E+03   -0.13053E-07   -0.61088E-08  1152   0.514E-04    0.809E-04
DAV:  50    -0.715915315603E+03   -0.44092E-07   -0.14513E-08   720   0.313E-04    0.678E-04
DAV:  51    -0.715915315637E+03   -0.34386E-07   -0.78831E-09   720   0.228E-04    0.618E-04
DAV:  52    -0.715915315667E+03   -0.29424E-07   -0.58118E-09   720   0.206E-04    0.588E-04
DAV:  53    -0.715915315681E+03   -0.13853E-07   -0.27528E-09   720   0.160E-04    0.518E-04
DAV:  54    -0.715915315706E+03   -0.25699E-07   -0.22615E-09   720   0.131E-04    0.499E-04
DAV:  55    -0.715915315723E+03   -0.16458E-07   -0.16613E-09   576   0.111E-04    0.504E-04
DAV:  56    -0.715915315737E+03   -0.14115E-07   -0.10674E-09   576   0.100E-04    0.481E-04
DAV:  57    -0.715915315748E+03   -0.11147E-07   -0.13238E-09   576   0.988E-05    0.489E-04
DAV:  58    -0.715915315756E+03   -0.76325E-08   -0.10624E-09   576   0.801E-05
   4 F= -.71591532E+03 E0= -.71586932E+03  d E =-.733333E+00
 trial-energy change:   -0.733333  1 .order   -0.725699   -1.150320   -0.301078
 step:   1.3473(harm=  1.3714)  dis= 0.09670  next Energy=  -715.965388 (dE=-0.783E+00)
 bond charge predicted
       N       E                     dE             d eps       ncg     rms          rms(c)
DAV:   1    -0.715909542911E+03    0.57728E-02   -0.40590E+01   912   0.975E+00    0.583E+00
DAV:   2    -0.720557049661E+03   -0.46475E+01   -0.30556E+01  1536   0.777E+00    0.271E+01
DAV:   3    -0.718635608448E+03    0.19214E+01   -0.67633E+01  1200   0.363E+00    0.267E+01
DAV:   4    -0.716768779333E+03    0.18668E+01   -0.38893E+01  1488   0.283E+00    0.131E+01
DAV:   5    -0.716247294619E+03    0.52148E+00   -0.96109E+00  1440   0.221E+00    0.751E+00
DAV:   6    -0.716059038304E+03    0.18826E+00   -0.64700E-01  1440   0.119E+00    0.538E+00
DAV:   7    -0.716084612739E+03   -0.25574E-01   -0.43514E-01  1392   0.767E-01    0.630E+00
DAV:   8    -0.716074464203E+03    0.10149E-01   -0.11160E+00  1536   0.831E-01    0.588E+00
DAV:   9    -0.716292176867E+03   -0.21771E+00   -0.18551E+00  1344   0.133E+00    0.978E+00
DAV:  10    -0.716102033636E+03    0.19014E+00   -0.40104E+00  1440   0.121E+00    0.569E+00
DAV:  11    -0.715996052878E+03    0.10598E+00   -0.61649E-01  1488   0.107E+00    0.290E+00
DAV:  12    -0.715982094274E+03    0.13959E-01   -0.21057E-01  1344   0.739E-01    0.231E+00
DAV:  13    -0.715977754923E+03    0.43394E-02   -0.12454E-01  1344   0.408E-01    0.197E+00
DAV:  14    -0.715965909510E+03    0.11845E-01   -0.75417E-02  1392   0.361E-01    0.108E+00
DAV:  15    -0.715963896212E+03    0.20133E-02   -0.23655E-02  1344   0.238E-01    0.630E-01
DAV:  16    -0.715964681138E+03   -0.78493E-03   -0.10643E-02  1296   0.171E-01    0.507E-01
DAV:  17    -0.715964698382E+03   -0.17244E-04   -0.93944E-03  1296   0.157E-01    0.315E-01
DAV:  18    -0.715964890412E+03   -0.19203E-03   -0.50234E-03  1440   0.108E-01    0.229E-01
DAV:  19    -0.715964904977E+03   -0.14565E-04   -0.19258E-03  1344   0.780E-02    0.126E-01
DAV:  20    -0.715964928778E+03   -0.23802E-04   -0.54482E-04  1392   0.389E-02    0.991E-02
DAV:  21    -0.715964947371E+03   -0.18593E-04   -0.21183E-04  1440   0.264E-02    0.780E-02
DAV:  22    -0.715964974100E+03   -0.26729E-04   -0.19453E-04  1344   0.218E-02    0.584E-02
DAV:  23    -0.715964988471E+03   -0.14371E-04   -0.85981E-05  1296   0.174E-02    0.352E-02
DAV:  24    -0.715965009239E+03   -0.20767E-04   -0.44543E-05  1392   0.115E-02    0.171E-02
DAV:  25    -0.715965023823E+03   -0.14584E-04   -0.22295E-05  1392   0.913E-03    0.110E-02
DAV:  26    -0.715965034642E+03   -0.10819E-04   -0.51851E-06  1536   0.418E-03    0.737E-03
DAV:  27    -0.715965044968E+03   -0.10326E-04   -0.28016E-06  1440   0.315E-03    0.474E-03
DAV:  28    -0.715965060426E+03   -0.15458E-04   -0.18074E-06  1488   0.212E-03    0.434E-03
DAV:  29    -0.715965074883E+03   -0.14457E-04   -0.12085E-06  1488   0.189E-03    0.424E-03
DAV:  30    -0.715965083821E+03   -0.89381E-05   -0.58741E-07  1392   0.136E-03    0.261E-03
DAV:  31    -0.715965091543E+03   -0.77222E-05   -0.34194E-07  1296   0.978E-04    0.228E-03
DAV:  32    -0.715965104574E+03   -0.13031E-04   -0.40870E-07  1248   0.963E-04    0.200E-03
DAV:  33    -0.715965114524E+03   -0.99495E-05   -0.29277E-07  1104   0.812E-04    0.151E-03
DAV:  34    -0.715965118621E+03   -0.40970E-05   -0.15049E-07  1056   0.692E-04    0.122E-03
DAV:  35    -0.715965122189E+03   -0.35681E-05   -0.89929E-08  1056   0.522E-04    0.104E-03
DAV:  36    -0.715965125293E+03   -0.31046E-05   -0.62638E-08   960   0.428E-04    0.778E-04
DAV:  37    -0.715965126790E+03   -0.14964E-05   -0.25757E-08   864   0.329E-04    0.693E-04
DAV:  38    -0.715965127387E+03   -0.59716E-06   -0.95711E-09   720   0.242E-04    0.572E-04
DAV:  39    -0.715965127723E+03   -0.33584E-06   -0.54955E-09   576   0.198E-04    0.552E-04
DAV:  40    -0.715965127793E+03   -0.70431E-07   -0.26379E-09   576   0.148E-04    0.520E-04
DAV:  41    -0.715965127991E+03   -0.19826E-06   -0.25453E-09   576   0.126E-04    0.526E-04
DAV:  42    -0.715965128103E+03   -0.11133E-06   -0.17459E-09   576   0.123E-04    0.516E-04
DAV:  43    -0.715965128110E+03   -0.74433E-08   -0.86689E-10   576   0.891E-05
   5 F= -.71596513E+03 E0= -.71592494E+03  d E =-.783145E+00
 curvature:  -0.88 expect dE=-0.372E+00 dE for cont linesearch -0.865E-05
 trial: gam= 0.17617 g(F)=  0.423E+00 g(S)=  0.000E+00 ort =-0.379E-02 (trialstep = 0.108E+01)
 search vector abs. value=  0.467E+00
 bond charge predicted
       N       E                     dE             d eps       ncg     rms          rms(c)
DAV:   1    -0.716366831811E+03   -0.40170E+00   -0.13250E+02  1008   0.183E+01    0.156E+01
DAV:   2    -0.747755995323E+03   -0.31389E+02   -0.22491E+02  1536   0.137E+01    0.469E+01
DAV:   3    -0.723300845029E+03    0.24455E+02   -0.16863E+02  1440   0.815E+00    0.260E+01
DAV:   4    -0.718962107441E+03    0.43387E+01   -0.36150E+01  1440   0.728E+00    0.170E+01
DAV:   5    -0.717370011447E+03    0.15921E+01   -0.17137E+01  1296   0.447E+00    0.146E+01
DAV:   6    -0.716686163465E+03    0.68385E+00   -0.96102E+00  1344   0.269E+00    0.867E+00
DAV:   7    -0.716465367937E+03    0.22080E+00   -0.34495E+00  1488   0.243E+00    0.895E+00
DAV:   8    -0.717195151544E+03   -0.72978E+00   -0.98529E+00  1344   0.218E+00    0.185E+01
DAV:   9    -0.716995877696E+03    0.19927E+00   -0.13294E+01  1584   0.220E+00    0.150E+01
DAV:  10    -0.716454743362E+03    0.54113E+00   -0.10224E+01  1392   0.208E+00    0.548E+00
DAV:  11    -0.716689956850E+03   -0.23521E+00   -0.27058E+00  1392   0.191E+00    0.813E+00
DAV:  12    -0.716520311794E+03    0.16965E+00   -0.16975E+00  1392   0.136E+00    0.603E+00
DAV:  13    -0.716340968993E+03    0.17934E+00   -0.51036E-01  1488   0.946E-01    0.403E+00
DAV:  14    -0.716317992143E+03    0.22977E-01   -0.12543E-01  1344   0.526E-01    0.306E+00
DAV:  15    -0.716301824952E+03    0.16167E-01   -0.33621E-02  1536   0.317E-01    0.256E+00
DAV:  16    -0.716297754235E+03    0.40707E-02   -0.26785E-02  1488   0.265E-01    0.250E+00
DAV:  17    -0.716281407654E+03    0.16347E-01   -0.16339E-02  1344   0.191E-01    0.178E+00
DAV:  18    -0.716270017449E+03    0.11390E-01   -0.29437E-02  1344   0.220E-01    0.543E-01
DAV:  19    -0.716271474573E+03   -0.14571E-02   -0.96636E-03  1296   0.137E-01    0.304E-01
DAV:  20    -0.716272116389E+03   -0.64182E-03   -0.23391E-03  1536   0.858E-02    0.217E-01
DAV:  21    -0.716272513970E+03   -0.39758E-03   -0.16765E-03  1392   0.693E-02    0.280E-01
DAV:  22    -0.716272431949E+03    0.82020E-04   -0.22585E-03  1440   0.512E-02    0.118E-01
DAV:  23    -0.716272465753E+03   -0.33804E-04   -0.35454E-04  1296   0.314E-02    0.837E-02
DAV:  24    -0.716272475708E+03   -0.99548E-05   -0.13099E-04  1488   0.186E-02    0.438E-02
DAV:  25    -0.716272518883E+03   -0.43175E-04   -0.49703E-05  1392   0.127E-02    0.187E-02
DAV:  26    -0.716272572661E+03   -0.53778E-04   -0.37163E-05  1536   0.104E-02    0.305E-02
DAV:  27    -0.716272602802E+03   -0.30141E-04   -0.24955E-05  1440   0.744E-03    0.104E-02
DAV:  28    -0.716272621898E+03   -0.19096E-04   -0.80762E-06  1488   0.495E-03    0.717E-03
DAV:  29    -0.716272642889E+03   -0.20991E-04   -0.59752E-06  1344   0.383E-03    0.130E-02
DAV:  30    -0.716272661896E+03   -0.19007E-04   -0.47495E-06  1248   0.269E-03    0.404E-03
DAV:  31    -0.716272679851E+03   -0.17955E-04   -0.20885E-06  1248   0.198E-03    0.431E-03
DAV:  32    -0.716272699535E+03   -0.19684E-04   -0.28536E-06  1248   0.204E-03    0.642E-03
DAV:  33    -0.716272709653E+03   -0.10118E-04   -0.91508E-07  1248   0.134E-03    0.287E-03
DAV:  34    -0.716272719461E+03   -0.98081E-05   -0.66496E-07  1200   0.991E-04    0.136E-03
DAV:  35    -0.716272727262E+03   -0.78004E-05   -0.41000E-07  1104   0.786E-04    0.167E-03
DAV:  36    -0.716272733356E+03   -0.60941E-05   -0.21832E-07   960   0.540E-04    0.114E-03
DAV:  37    -0.716272738117E+03   -0.47609E-05   -0.17932E-07  1056   0.508E-04    0.135E-03
DAV:  38    -0.716272741314E+03   -0.31977E-05   -0.48200E-08   960   0.372E-04    0.129E-03
DAV:  39    -0.716272744543E+03   -0.32286E-05   -0.49608E-08   768   0.334E-04    0.418E-04
DAV:  40    -0.716272746276E+03   -0.17333E-05   -0.18946E-08   864   0.275E-04    0.464E-04
DAV:  41    -0.716272746910E+03   -0.63319E-06   -0.54648E-09   672   0.202E-04    0.510E-04
DAV:  42    -0.716272747320E+03   -0.41044E-06   -0.57197E-09   720   0.175E-04    0.372E-04
DAV:  43    -0.716272747586E+03   -0.26581E-06   -0.39235E-09   720   0.154E-04    0.354E-04
DAV:  44    -0.716272747665E+03   -0.79301E-07   -0.21648E-09   576   0.125E-04    0.402E-04
DAV:  45    -0.716272747678E+03   -0.13366E-07   -0.10252E-09   576   0.107E-04    0.365E-04
DAV:  46    -0.716272747692E+03   -0.13497E-07   -0.73819E-10   576   0.859E-05    0.369E-04
DAV:  47    -0.716272747694E+03   -0.23720E-08   -0.59948E-10   576   0.798E-05
   6 F= -.71627275E+03 E0= -.71622445E+03  d E =-.307620E+00
 trial-energy change:   -0.307620  1 .order   -0.305717   -0.456338   -0.155095
 step:   1.6055(harm=  1.6352)  dis= 0.08432  next Energy=  -716.310763 (dE=-0.346E+00)
 bond charge predicted
       N       E                     dE             d eps       ncg     rms          rms(c)
DAV:   1    -0.716331034230E+03   -0.58287E-01   -0.31401E+01   912   0.885E+00    0.772E+00
DAV:   2    -0.729535961457E+03   -0.13205E+02   -0.85972E+01  1536   0.750E+00    0.400E+01
DAV:   3    -0.719167977263E+03    0.10368E+02   -0.94078E+01  1296   0.492E+00    0.206E+01
DAV:   4    -0.717253294606E+03    0.19147E+01   -0.19732E+01  1392   0.412E+00    0.116E+01
DAV:   5    -0.716534244144E+03    0.71905E+00   -0.51142E+00  1248   0.262E+00    0.717E+00
DAV:   6    -0.716438040841E+03    0.96203E-01   -0.18992E+00  1344   0.144E+00    0.596E+00
DAV:   7    -0.716355972565E+03    0.82068E-01   -0.98832E-01  1392   0.117E+00    0.455E+00
DAV:   8    -0.716455972310E+03   -0.10000E+00   -0.14885E+00  1344   0.106E+00    0.661E+00
DAV:   9    -0.716431775849E+03    0.24196E-01   -0.21126E+00  1488   0.945E-01    0.592E+00
DAV:  10    -0.716417830138E+03    0.13946E-01   -0.23785E+00  1392   0.120E+00    0.476E+00
DAV:  11    -0.716592698584E+03   -0.17487E+00   -0.21840E+00  1296   0.108E+00    0.806E+00
DAV:  12    -0.716373486996E+03    0.21921E+00   -0.11792E+00  1296   0.921E-01    0.371E+00
DAV:  13    -0.716319291751E+03    0.54195E-01   -0.19603E-01  1488   0.702E-01    0.225E+00
DAV:  14    -0.716309441525E+03    0.98502E-02   -0.45474E-02  1392   0.349E-01    0.119E+00
DAV:  15    -0.716310481281E+03   -0.10398E-02   -0.87299E-03  1392   0.165E-01    0.896E-01
DAV:  16    -0.716308887373E+03    0.15939E-02   -0.11987E-02  1488   0.175E-01    0.477E-01
DAV:  17    -0.716308822710E+03    0.64662E-04   -0.50648E-03  1392   0.128E-01    0.238E-01
DAV:  18    -0.716309081315E+03   -0.25861E-03   -0.26128E-03  1440   0.954E-02    0.133E-01
DAV:  19    -0.716309222409E+03   -0.14109E-03   -0.81050E-04  1344   0.502E-02    0.117E-01
DAV:  20    -0.716309207839E+03    0.14569E-04   -0.46667E-04  1584   0.344E-02    0.507E-02
DAV:  21    -0.716309232638E+03   -0.24799E-04   -0.16610E-04  1488   0.238E-02    0.340E-02
DAV:  22    -0.716309237576E+03   -0.49383E-05   -0.85008E-05  1536   0.175E-02    0.276E-02
DAV:  23    -0.716309246832E+03   -0.92555E-05   -0.28847E-05  1488   0.993E-03    0.223E-02
DAV:  24    -0.716309252172E+03   -0.53399E-05   -0.14899E-05  1488   0.656E-03    0.117E-02
DAV:  25    -0.716309257952E+03   -0.57806E-05   -0.53717E-06  1536   0.400E-03    0.853E-03
DAV:  26    -0.716309262698E+03   -0.47462E-05   -0.19051E-06  1488   0.254E-03    0.641E-03
DAV:  27    -0.716309267775E+03   -0.50770E-05   -0.12056E-06  1344   0.202E-03    0.327E-03
DAV:  28    -0.716309272508E+03   -0.47323E-05   -0.51320E-07  1488   0.126E-03    0.175E-03
DAV:  29    -0.716309275575E+03   -0.30674E-05   -0.22106E-07  1200   0.841E-04    0.165E-03
DAV:  30    -0.716309278857E+03   -0.32816E-05   -0.15057E-07  1008   0.613E-04    0.123E-03
DAV:  31    -0.716309281929E+03   -0.30726E-05   -0.10013E-07  1056   0.517E-04    0.899E-04
DAV:  32    -0.716309285897E+03   -0.39675E-05   -0.13178E-07   960   0.499E-04    0.725E-04
DAV:  33    -0.716309288439E+03   -0.25420E-05   -0.63806E-08   912   0.380E-04    0.597E-04
DAV:  34    -0.716309290981E+03   -0.25425E-05   -0.52797E-08   864   0.328E-04    0.577E-04
DAV:  35    -0.716309292527E+03   -0.15456E-05   -0.35184E-08   816   0.307E-04    0.541E-04
DAV:  36    -0.716309293087E+03   -0.56018E-06   -0.11202E-08   720   0.231E-04    0.536E-04
DAV:  37    -0.716309293306E+03   -0.21920E-06   -0.37695E-09   624   0.171E-04    0.480E-04
DAV:  38    -0.716309293541E+03   -0.23451E-06   -0.53423E-09   672   0.153E-04    0.480E-04
DAV:  39    -0.716309293622E+03   -0.81520E-07   -0.19465E-09   576   0.132E-04    0.423E-04
DAV:  40    -0.716309293662E+03   -0.39559E-07   -0.12494E-09   576   0.101E-04    0.413E-04
DAV:  41    -0.716309293710E+03   -0.48705E-07   -0.10840E-09   576   0.970E-05    0.408E-04
DAV:  42    -0.716309293735E+03   -0.24134E-07   -0.85802E-10   576   0.861E-05    0.405E-04
DAV:  43    -0.716309293755E+03   -0.20824E-07   -0.84897E-10   576   0.791E-05    0.405E-04
DAV:  44    -0.716309293762E+03   -0.63810E-08   -0.79069E-10   576   0.760E-05
   7 F= -.71630929E+03 E0= -.71625900E+03  d E =-.344166E+00
 curvature:  -0.90 expect dE=-0.102E+00 dE for cont linesearch -0.102E-03
 trial: gam= 0.19530 g(F)=  0.113E+00 g(S)=  0.000E+00 ort =-0.726E-02 (trialstep = 0.118E+01)
 search vector abs. value=  0.128E+00
 bond charge predicted
       N       E                     dE             d eps       ncg     rms          rms(c)
DAV:   1    -0.716331263535E+03   -0.21970E-01   -0.39199E+01   912   0.103E+01    0.476E+00
DAV:   2    -0.722277644308E+03   -0.59464E+01   -0.61871E+01  1536   0.604E+00    0.278E+01
DAV:   3    -0.718422559324E+03    0.38551E+01   -0.59218E+01  1392   0.606E+00    0.191E+01
DAV:   4    -0.716649360471E+03    0.17732E+01   -0.93537E+00  1344   0.274E+00    0.927E+00
DAV:   5    -0.716543936030E+03    0.10542E+00   -0.37648E+00  1392   0.166E+00    0.579E+00
DAV:   6    -0.716525057880E+03    0.18878E-01   -0.14215E+00  1488   0.138E+00    0.544E+00
DAV:   7    -0.716585553606E+03   -0.60496E-01   -0.22835E+00  1440   0.996E-01    0.651E+00
DAV:   8    -0.716440730324E+03    0.14482E+00   -0.13353E+00  1392   0.861E-01    0.235E+00
DAV:   9    -0.716465638887E+03   -0.24909E-01   -0.46261E-01  1344   0.840E-01    0.338E+00
DAV:  10    -0.716440189121E+03    0.25450E-01   -0.57118E-01  1344   0.510E-01    0.264E+00
DAV:  11    -0.716416424331E+03    0.23765E-01   -0.18224E-01  1488   0.466E-01    0.931E-01
DAV:  12    -0.716413325912E+03    0.30984E-02   -0.36502E-02  1440   0.365E-01    0.822E-01
DAV:  13    -0.716416135258E+03   -0.28093E-02   -0.67063E-02  1392   0.213E-01    0.134E+00
DAV:  14    -0.716409093737E+03    0.70415E-02   -0.41325E-02  1344   0.184E-01    0.436E-01
DAV:  15    -0.716409366021E+03   -0.27228E-03   -0.92525E-03  1344   0.168E-01    0.256E-01
DAV:  16    -0.716409539068E+03   -0.17305E-03   -0.44640E-03  1344   0.120E-01    0.165E-01
DAV:  17    -0.716409646207E+03   -0.10714E-03   -0.13876E-03  1584   0.665E-02    0.114E-01
DAV:  18    -0.716409678896E+03   -0.32689E-04   -0.68474E-04  1584   0.485E-02    0.912E-02
DAV:  19    -0.716409697316E+03   -0.18419E-04   -0.26224E-04  1344   0.319E-02    0.561E-02
DAV:  20    -0.716409731994E+03   -0.34679E-04   -0.92276E-05  1440   0.198E-02    0.322E-02
DAV:  21    -0.716409754380E+03   -0.22386E-04   -0.97868E-05  1536   0.170E-02    0.316E-02
DAV:  22    -0.716409754585E+03   -0.20456E-06   -0.48026E-05  1440   0.134E-02    0.112E-02
DAV:  23    -0.716409763054E+03   -0.84690E-05   -0.11250E-05  1488   0.689E-03    0.812E-03
DAV:  24    -0.716409767334E+03   -0.42797E-05   -0.49663E-06  1440   0.430E-03    0.455E-03
DAV:  25    -0.716409771972E+03   -0.46381E-05   -0.14976E-06  1488   0.242E-03    0.312E-03
DAV:  26    -0.716409776581E+03   -0.46092E-05   -0.91058E-07  1488   0.176E-03    0.234E-03
DAV:  27    -0.716409782335E+03   -0.57539E-05   -0.60450E-07  1488   0.132E-03    0.195E-03
DAV:  28    -0.716409786077E+03   -0.37420E-05   -0.23880E-07  1200   0.897E-04    0.147E-03
DAV:  29    -0.716409792422E+03   -0.63453E-05   -0.29455E-07  1152   0.818E-04    0.133E-03
DAV:  30    -0.716409797747E+03   -0.53244E-05   -0.13471E-07  1056   0.579E-04    0.962E-04
DAV:  31    -0.716409804597E+03   -0.68509E-05   -0.14403E-07   864   0.537E-04    0.107E-03
DAV:  32    -0.716409812675E+03   -0.80772E-05   -0.13945E-07   864   0.539E-04    0.829E-04
DAV:  33    -0.716409816633E+03   -0.39579E-05   -0.45544E-08   816   0.408E-04    0.684E-04
DAV:  34    -0.716409819626E+03   -0.29937E-05   -0.29998E-08   864   0.355E-04    0.610E-04
DAV:  35    -0.716409821269E+03   -0.16431E-05   -0.15613E-08   720   0.303E-04    0.581E-04
DAV:  36    -0.716409822059E+03   -0.78980E-06   -0.99674E-09   768   0.246E-04    0.539E-04
DAV:  37    -0.716409822563E+03   -0.50393E-06   -0.54785E-09   672   0.204E-04    0.542E-04
DAV:  38    -0.716409822700E+03   -0.13698E-06   -0.23281E-09   576   0.156E-04    0.530E-04
DAV:  39    -0.716409822793E+03   -0.92550E-07   -0.19717E-09   720   0.127E-04    0.530E-04
DAV:  40    -0.716409822857E+03   -0.64560E-07   -0.16229E-09   576   0.117E-04    0.524E-04
DAV:  41    -0.716409822876E+03   -0.18517E-07   -0.14653E-09   576   0.106E-04    0.521E-04
DAV:  42    -0.716409822876E+03   -0.61118E-09   -0.75128E-10   576   0.896E-05
   8 F= -.71640982E+03 E0= -.71636387E+03  d E =-.100529E+00
 trial-energy change:   -0.100529  1 .order   -0.098911   -0.132099   -0.065723
 step:   2.1148(harm=  2.3576)  dis= 0.05087  next Energy=  -716.436407 (dE=-0.127E+00)
 bond charge predicted
       N       E                     dE             d eps       ncg     rms          rms(c)
DAV:   1    -0.716378832356E+03    0.30991E-01   -0.24120E+01   912   0.805E+00    0.365E+00
DAV:   2    -0.720430228735E+03   -0.40514E+01   -0.44048E+01  1488   0.463E+00    0.250E+01
DAV:   3    -0.717818948582E+03    0.26113E+01   -0.41587E+01  1392   0.474E+00    0.170E+01
DAV:   4    -0.716536989372E+03    0.12820E+01   -0.57958E+00  1440   0.213E+00    0.755E+00
DAV:   5    -0.716497839700E+03    0.39150E-01   -0.24526E+00  1392   0.132E+00    0.501E+00
DAV:   6    -0.716481702544E+03    0.16137E-01   -0.81649E-01  1440   0.105E+00    0.338E+00
DAV:   7    -0.716567336025E+03   -0.85633E-01   -0.14528E+00  1488   0.788E-01    0.619E+00
DAV:   8    -0.716434076729E+03    0.13326E+00   -0.86702E-01  1392   0.679E-01    0.170E+00
DAV:   9    -0.716491592337E+03   -0.57516E-01   -0.48680E-01  1392   0.610E-01    0.413E+00
DAV:  10    -0.716444992658E+03    0.46600E-01   -0.59765E-01  1344   0.455E-01    0.180E+00
DAV:  11    -0.716440831788E+03    0.41609E-02   -0.12467E-01  1392   0.432E-01    0.113E+00
DAV:  12    -0.716443091169E+03   -0.22594E-02   -0.10567E-01  1392   0.253E-01    0.148E+00
DAV:  13    -0.716435460596E+03    0.76306E-02   -0.56999E-02  1440   0.241E-01    0.422E-01
DAV:  14    -0.716436150469E+03   -0.68987E-03   -0.84787E-03  1392   0.171E-01    0.247E-01
DAV:  15    -0.716436313144E+03   -0.16268E-03   -0.32885E-03  1392   0.103E-01    0.180E-01
DAV:  16    -0.716436397870E+03   -0.84725E-04   -0.15459E-03  1488   0.664E-02    0.114E-01
DAV:  17    -0.716436427180E+03   -0.29310E-04   -0.62114E-04  1488   0.453E-02    0.975E-02
DAV:  18    -0.716436409220E+03    0.17960E-04   -0.28492E-04  1296   0.317E-02    0.545E-02
DAV:  19    -0.716436430739E+03   -0.21519E-04   -0.13259E-04  1392   0.195E-02    0.235E-02
DAV:  20    -0.716436460644E+03   -0.29905E-04   -0.53470E-05  1488   0.140E-02    0.221E-02
DAV:  21    -0.716436469660E+03   -0.90162E-05   -0.27240E-05  1584   0.930E-03    0.154E-02
DAV:  22    -0.716436473662E+03   -0.40014E-05   -0.12208E-05  1536   0.662E-03    0.104E-02
DAV:  23    -0.716436475595E+03   -0.19336E-05   -0.63580E-06  1488   0.540E-03    0.635E-03
DAV:  24    -0.716436478945E+03   -0.33501E-05   -0.18688E-06  1488   0.246E-03    0.410E-03
DAV:  25    -0.716436481472E+03   -0.25271E-05   -0.61786E-07  1536   0.146E-03    0.313E-03
DAV:  26    -0.716436485281E+03   -0.38083E-05   -0.41768E-07  1392   0.114E-03    0.182E-03
DAV:  27    -0.716436489896E+03   -0.46149E-05   -0.36084E-07  1248   0.101E-03    0.189E-03
DAV:  28    -0.716436493155E+03   -0.32590E-05   -0.13605E-07  1056   0.659E-04    0.107E-03
DAV:  29    -0.716436496566E+03   -0.34113E-05   -0.70945E-08  1008   0.486E-04    0.984E-04
DAV:  30    -0.716436501999E+03   -0.54335E-05   -0.77075E-08   816   0.441E-04    0.977E-04
DAV:  31    -0.716436507406E+03   -0.54067E-05   -0.81451E-08   864   0.447E-04    0.799E-04
DAV:  32    -0.716436510430E+03   -0.30236E-05   -0.35580E-08   864   0.346E-04    0.774E-04
DAV:  33    -0.716436513050E+03   -0.26201E-05   -0.33061E-08   768   0.336E-04    0.701E-04
DAV:  34    -0.716436514418E+03   -0.13677E-05   -0.15408E-08   720   0.266E-04    0.740E-04
DAV:  35    -0.716436514997E+03   -0.57925E-06   -0.61124E-09   768   0.204E-04    0.663E-04
DAV:  36    -0.716436515262E+03   -0.26482E-06   -0.27615E-09   624   0.167E-04    0.662E-04
DAV:  37    -0.716436515420E+03   -0.15811E-06   -0.21738E-09   576   0.137E-04    0.644E-04
DAV:  38    -0.716436515578E+03   -0.15818E-06   -0.21932E-09   576   0.129E-04    0.650E-04
DAV:  39    -0.716436515659E+03   -0.80807E-07   -0.14514E-09   576   0.112E-04    0.644E-04
DAV:  40    -0.716436515683E+03   -0.24243E-07   -0.81178E-10   576   0.892E-05    0.638E-04
DAV:  41    -0.716436515715E+03   -0.31680E-07   -0.50978E-10   576   0.750E-05    0.642E-04
DAV:  42    -0.716436515739E+03   -0.24658E-07   -0.42169E-10   576   0.685E-05    0.636E-04
DAV:  43    -0.716436515769E+03   -0.29402E-07   -0.54420E-10   576   0.677E-05    0.636E-04
DAV:  44    -0.716436515776E+03   -0.71959E-08   -0.29613E-10   576   0.625E-05
   9 F= -.71643652E+03 E0= -.71639604E+03  d E =-.127222E+00
 curvature:  -1.29 expect dE=-0.864E-01 dE for cont linesearch -0.413E-05
 trial: gam= 0.50842 g(F)=  0.667E-01 g(S)=  0.000E+00 ort = 0.639E-03 (trialstep = 0.137E+01)
 search vector abs. value=  0.100E+00
 bond charge predicted
       N       E                     dE             d eps       ncg     rms          rms(c)
DAV:   1    -0.716320079601E+03    0.11644E+00   -0.44740E+01   864   0.113E+01    0.285E+00
DAV:   2    -0.719093832452E+03   -0.27738E+01   -0.20861E+01  1536   0.435E+00    0.254E+01
DAV:   3    -0.716894201404E+03    0.21996E+01   -0.24455E+01  1296   0.242E+00    0.137E+01
DAV:   4    -0.716399065816E+03    0.49514E+00   -0.30577E+00  1536   0.141E+00    0.290E+00
DAV:   5    -0.716498239013E+03   -0.99173E-01   -0.28120E-01  1392   0.810E-01    0.295E+00
DAV:   6    -0.716510782162E+03   -0.12543E-01   -0.36424E-01  1536   0.411E-01    0.326E+00
DAV:   7    -0.716498885339E+03    0.11897E-01   -0.21191E-01  1536   0.456E-01    0.232E+00
DAV:   8    -0.716526333309E+03   -0.27448E-01   -0.32029E-01  1536   0.662E-01    0.323E+00
DAV:   9    -0.716511404870E+03    0.14928E-01   -0.53416E-01  1296   0.485E-01    0.280E+00
DAV:  10    -0.716491591469E+03    0.19813E-01   -0.29022E-01  1440   0.478E-01    0.115E+00
DAV:  11    -0.716495526465E+03   -0.39350E-02   -0.13816E-01  1296   0.455E-01    0.150E+00
DAV:  12    -0.716494065676E+03    0.14608E-02   -0.13938E-01  1344   0.244E-01    0.142E+00
DAV:  13    -0.716487589602E+03    0.64761E-02   -0.45046E-02  1344   0.233E-01    0.309E-01
DAV:  14    -0.716488709646E+03   -0.11200E-02   -0.42434E-03  1344   0.116E-01    0.275E-01
DAV:  15    -0.716488618185E+03    0.91461E-04   -0.19062E-03  1488   0.795E-02    0.204E-01
DAV:  16    -0.716488534822E+03    0.83364E-04   -0.11647E-03  1488   0.665E-02    0.116E-01
DAV:  17    -0.716488517077E+03    0.17745E-04   -0.70957E-04  1344   0.486E-02    0.770E-02
DAV:  18    -0.716488512704E+03    0.43731E-05   -0.17049E-04  1488   0.216E-02    0.405E-02
DAV:  19    -0.716488525070E+03   -0.12367E-04   -0.48941E-05  1440   0.129E-02    0.338E-02
DAV:  20    -0.716488538395E+03   -0.13325E-04   -0.42658E-05  1392   0.904E-03    0.214E-02
DAV:  21    -0.716488546755E+03   -0.83604E-05   -0.21406E-05  1488   0.815E-03    0.173E-02
DAV:  22    -0.716488549893E+03   -0.31377E-05   -0.96100E-06  1632   0.499E-03    0.116E-02
DAV:  23    -0.716488552306E+03   -0.24127E-05   -0.32950E-06  1392   0.349E-03    0.655E-03
DAV:  24    -0.716488556353E+03   -0.40468E-05   -0.13430E-06  1488   0.199E-03    0.450E-03
DAV:  25    -0.716488560295E+03   -0.39427E-05   -0.65079E-07  1488   0.140E-03    0.264E-03
DAV:  26    -0.716488563341E+03   -0.30458E-05   -0.43964E-07  1296   0.121E-03    0.165E-03
DAV:  27    -0.716488564340E+03   -0.99894E-06   -0.12234E-07  1152   0.673E-04    0.140E-03
DAV:  28    -0.716488564920E+03   -0.57939E-06   -0.53900E-08  1008   0.469E-04    0.115E-03
DAV:  29    -0.716488565443E+03   -0.52367E-06   -0.24474E-08   768   0.310E-04    0.974E-04
DAV:  30    -0.716488565710E+03   -0.26685E-06   -0.14493E-08   816   0.253E-04    0.902E-04
DAV:  31    -0.716488565917E+03   -0.20720E-06   -0.11712E-08   816   0.226E-04    0.865E-04
DAV:  32    -0.716488566102E+03   -0.18498E-06   -0.12559E-08   864   0.197E-04    0.856E-04
DAV:  33    -0.716488566187E+03   -0.84459E-07   -0.63847E-09   672   0.167E-04    0.869E-04
DAV:  34    -0.716488566241E+03   -0.54606E-07   -0.45544E-09   672   0.144E-04    0.858E-04
DAV:  35    -0.716488566275E+03   -0.33499E-07   -0.18116E-09   576   0.123E-04    0.849E-04
DAV:  36    -0.716488566304E+03   -0.28849E-07   -0.17344E-09   576   0.106E-04    0.845E-04
DAV:  37    -0.716488566326E+03   -0.22032E-07   -0.10319E-09   576   0.945E-05    0.841E-04
DAV:  38    -0.716488566331E+03   -0.51004E-08   -0.59693E-10   576   0.784E-05
  10 F= -.71648857E+03 E0= -.71645615E+03  d E =-.520506E-01
 trial-energy change:   -0.052051  1 .order   -0.050989   -0.091905   -0.010073
 step:   1.5259(harm=  1.5394)  dis= 0.02225  next Energy=  -716.489138 (dE=-0.526E-01)
 bond charge predicted
       N       E                     dE             d eps       ncg     rms          rms(c)
DAV:   1    -0.716487041154E+03    0.15252E-02   -0.57484E-01   864   0.128E+00    0.317E-01
DAV:   2    -0.716530952004E+03   -0.43911E-01   -0.31211E-01  1536   0.498E-01    0.367E+00
DAV:   3    -0.716479381467E+03    0.51571E-01   -0.23503E-01  1344   0.303E-01    0.342E-01
DAV:   4    -0.716488796289E+03   -0.94148E-02   -0.94240E-03  1536   0.137E-01    0.274E-01
DAV:   5    -0.716489186323E+03   -0.39003E-03   -0.39494E-03  1488   0.558E-02    0.298E-01
DAV:   6    -0.716489101980E+03    0.84343E-04   -0.19279E-03  1488   0.561E-02    0.207E-01
DAV:   7    -0.716489411154E+03   -0.30917E-03   -0.29027E-03  1488   0.406E-02    0.344E-01
DAV:   8    -0.716489074398E+03    0.33676E-03   -0.40881E-03  1440   0.368E-02    0.227E-01
DAV:   9    -0.716489265966E+03   -0.19157E-03   -0.25480E-03  1440   0.547E-02    0.180E-01
DAV:  10    -0.716489704393E+03   -0.43843E-03   -0.60927E-03  1440   0.663E-02    0.431E-01
DAV:  11    -0.716488963045E+03    0.74135E-03   -0.50853E-03  1488   0.443E-02    0.123E-01
DAV:  12    -0.716489118294E+03   -0.15525E-03   -0.52656E-04  1344   0.351E-02    0.863E-02
DAV:  13    -0.716489131148E+03   -0.12854E-04   -0.27503E-04  1296   0.145E-02    0.104E-01
DAV:  14    -0.716489114715E+03    0.16432E-04   -0.15452E-04  1440   0.108E-02    0.725E-02
DAV:  15    -0.716489114472E+03    0.24394E-06   -0.42483E-05  1392   0.111E-02    0.594E-02
DAV:  16    -0.716489115587E+03   -0.11159E-05   -0.32899E-05  1344   0.102E-02    0.394E-02
DAV:  17    -0.716489118158E+03   -0.25703E-05   -0.27056E-05  1344   0.888E-03    0.247E-02
DAV:  18    -0.716489118244E+03   -0.86657E-07   -0.58504E-06  1488   0.439E-03    0.162E-02
DAV:  19    -0.716489118757E+03   -0.51270E-06   -0.22931E-06  1392   0.288E-03    0.115E-02
DAV:  20    -0.716489119322E+03   -0.56488E-06   -0.18820E-06  1440   0.227E-03    0.607E-03
DAV:  21    -0.716489119664E+03   -0.34222E-06   -0.71369E-07  1488   0.160E-03    0.463E-03
DAV:  22    -0.716489119751E+03   -0.87159E-07   -0.28829E-07  1440   0.933E-04    0.340E-03
DAV:  23    -0.716489119933E+03   -0.18183E-06   -0.22549E-07  1392   0.834E-04    0.166E-03
DAV:  24    -0.716489120008E+03   -0.74411E-07   -0.57904E-08   960   0.496E-04    0.108E-03
DAV:  25    -0.716489120047E+03   -0.39370E-07   -0.21488E-08   816   0.332E-04    0.909E-04
DAV:  26    -0.716489120077E+03   -0.29664E-07   -0.24601E-08   912   0.326E-04    0.949E-04
DAV:  27    -0.716489120093E+03   -0.16211E-07   -0.60292E-09   576   0.243E-04    0.915E-04
DAV:  28    -0.716489120096E+03   -0.34415E-08   -0.36550E-09   576   0.163E-04
  11 F= -.71648912E+03 E0= -.71645706E+03  d E =-.526043E-01
 curvature:  -1.15 expect dE=-0.180E-01 dE for cont linesearch -0.515E-06
 trial: gam= 0.19862 g(F)=  0.157E-01 g(S)=  0.000E+00 ort =-0.212E-03 (trialstep = 0.140E+01)
 search vector abs. value=  0.196E-01
 bond charge predicted
       N       E                     dE             d eps       ncg     rms          rms(c)
DAV:   1    -0.716474530195E+03    0.14590E-01   -0.96750E+00   864   0.513E+00    0.112E+00
DAV:   2    -0.716864325315E+03   -0.38980E+00   -0.34365E+00  1440   0.171E+00    0.883E+00
DAV:   3    -0.716487554187E+03    0.37677E+00   -0.19455E+00  1392   0.999E-01    0.346E+00
DAV:   4    -0.716495390833E+03   -0.78366E-02   -0.25186E-01  1488   0.444E-01    0.105E+00
DAV:   5    -0.716504002312E+03   -0.86115E-02   -0.16339E-02  1392   0.214E-01    0.101E+00
DAV:   6    -0.716507917338E+03   -0.39150E-02   -0.34910E-02  1584   0.131E-01    0.143E+00
DAV:   7    -0.716506002655E+03    0.19147E-02   -0.60438E-02  1584   0.170E-01    0.107E+00
DAV:   8    -0.716516690781E+03   -0.10688E-01   -0.12196E-01  1296   0.241E-01    0.208E+00
DAV:   9    -0.716501552929E+03    0.15138E-01   -0.12703E-01  1344   0.217E-01    0.726E-01
DAV:  10    -0.716504531780E+03   -0.29789E-02   -0.35214E-02  1344   0.230E-01    0.437E-01
DAV:  11    -0.716504709078E+03   -0.17730E-03   -0.22945E-02  1296   0.168E-01    0.634E-01
DAV:  12    -0.716503536385E+03    0.11727E-02   -0.17475E-02  1440   0.935E-02    0.334E-01
DAV:  13    -0.716503555713E+03   -0.19328E-04   -0.37614E-03  1248   0.859E-02    0.178E-01
DAV:  14    -0.716503559144E+03   -0.34308E-05   -0.52820E-04  1296   0.406E-02    0.160E-01
DAV:  15    -0.716503561234E+03   -0.20898E-05   -0.16710E-04  1392   0.236E-02    0.146E-01
DAV:  16    -0.716503533365E+03    0.27868E-04   -0.30892E-04  1488   0.259E-02    0.901E-02
DAV:  17    -0.716503512314E+03    0.21051E-04   -0.15065E-04  1440   0.209E-02    0.575E-02
DAV:  18    -0.716503527195E+03   -0.14881E-04   -0.41496E-05  1296   0.122E-02    0.403E-02
DAV:  19    -0.716503530588E+03   -0.33930E-05   -0.13057E-05  1536   0.640E-03    0.325E-02
DAV:  20    -0.716503534198E+03   -0.36101E-05   -0.13803E-05  1536   0.572E-03    0.231E-02
DAV:  21    -0.716503539975E+03   -0.57772E-05   -0.14594E-05  1440   0.623E-03    0.134E-02
DAV:  22    -0.716503542676E+03   -0.27008E-05   -0.68656E-06  1440   0.524E-03    0.660E-03
DAV:  23    -0.716503544055E+03   -0.13790E-05   -0.15166E-06  1440   0.216E-03    0.401E-03
DAV:  24    -0.716503545162E+03   -0.11066E-05   -0.68234E-07  1440   0.153E-03    0.279E-03
DAV:  25    -0.716503546969E+03   -0.18073E-05   -0.35066E-07  1440   0.101E-03    0.171E-03
DAV:  26    -0.716503548610E+03   -0.16407E-05   -0.19085E-07  1344   0.819E-04    0.156E-03
DAV:  27    -0.716503549726E+03   -0.11163E-05   -0.83704E-08  1008   0.581E-04    0.130E-03
DAV:  28    -0.716503551416E+03   -0.16898E-05   -0.66702E-08   960   0.420E-04    0.117E-03
DAV:  29    -0.716503553025E+03   -0.16094E-05   -0.69819E-08   912   0.443E-04    0.117E-03
DAV:  30    -0.716503554056E+03   -0.10310E-05   -0.32970E-08   768   0.340E-04    0.108E-03
DAV:  31    -0.716503554950E+03   -0.89395E-06   -0.32762E-08   960   0.317E-04    0.104E-03
DAV:  32    -0.716503555540E+03   -0.59024E-06   -0.12915E-08   816   0.229E-04    0.985E-04
DAV:  33    -0.716503556159E+03   -0.61815E-06   -0.12160E-08   720   0.199E-04    0.983E-04
DAV:  34    -0.716503556376E+03   -0.21770E-06   -0.30762E-09   624   0.163E-04    0.980E-04
DAV:  35    -0.716503556504E+03   -0.12817E-06   -0.25692E-09   576   0.124E-04    0.976E-04
DAV:  36    -0.716503556522E+03   -0.17346E-07   -0.11927E-09   576   0.105E-04    0.960E-04
DAV:  37    -0.716503556628E+03   -0.10581E-06   -0.15352E-09   576   0.941E-05    0.964E-04
DAV:  38    -0.716503556645E+03   -0.17215E-07   -0.80030E-10   576   0.934E-05    0.956E-04
DAV:  39    -0.716503556700E+03   -0.55108E-07   -0.91110E-10   576   0.691E-05    0.956E-04
DAV:  40    -0.716503556707E+03   -0.69485E-08   -0.27942E-10   576   0.686E-05
  12 F= -.71650356E+03 E0= -.71647040E+03  d E =-.144366E-01
 trial-energy change:   -0.014437  1 .order   -0.014411   -0.021972   -0.006850
 step:   2.0366(harm=  2.0366)  dis= 0.01877  next Energy=  -716.505082 (dE=-0.160E-01)
 bond charge predicted
       N       E                     dE             d eps       ncg     rms          rms(c)
DAV:   1    -0.716499135509E+03    0.44212E-02   -0.19845E+00   864   0.232E+00    0.512E-01
DAV:   2    -0.716590016404E+03   -0.90881E-01   -0.76181E-01  1440   0.779E-01    0.470E+00
DAV:   3    -0.716490666675E+03    0.99350E-01   -0.48845E-01  1392   0.466E-01    0.868E-01
DAV:   4    -0.716504607380E+03   -0.13941E-01   -0.31338E-02  1536   0.188E-01    0.577E-01
DAV:   5    -0.716505162390E+03   -0.55501E-03   -0.61652E-03  1488   0.890E-02    0.472E-01
DAV:   6    -0.716505535679E+03   -0.37329E-03   -0.34093E-03  1632   0.550E-02    0.520E-01
DAV:   7    -0.716506048438E+03   -0.51276E-03   -0.11767E-02  1584   0.652E-02    0.630E-01
DAV:   8    -0.716505833395E+03    0.21504E-03   -0.15551E-02  1536   0.119E-01    0.484E-01
DAV:   9    -0.716505663714E+03    0.16968E-03   -0.16856E-02  1344   0.109E-01    0.563E-01
DAV:  10    -0.716505249089E+03    0.41462E-03   -0.14077E-02  1392   0.919E-02    0.348E-01
DAV:  11    -0.716505108140E+03    0.14095E-03   -0.40497E-03  1248   0.864E-02    0.167E-01
DAV:  12    -0.716505092210E+03    0.15930E-04   -0.91433E-04  1392   0.500E-02    0.140E-01
DAV:  13    -0.716505130611E+03   -0.38401E-04   -0.10314E-03  1296   0.251E-02    0.171E-01
DAV:  14    -0.716505055322E+03    0.75289E-04   -0.45504E-04  1392   0.181E-02    0.983E-02
DAV:  15    -0.716505077368E+03   -0.22045E-04   -0.87112E-05  1344   0.170E-02    0.897E-02
DAV:  16    -0.716505081150E+03   -0.37824E-05   -0.81468E-05  1488   0.139E-02    0.636E-02
DAV:  17    -0.716505083590E+03   -0.24402E-05   -0.50940E-05  1392   0.133E-02    0.380E-02
DAV:  18    -0.716505087690E+03   -0.40994E-05   -0.25551E-05  1344   0.888E-03    0.242E-02
DAV:  19    -0.716505089459E+03   -0.17692E-05   -0.75638E-06  1632   0.454E-03    0.146E-02
DAV:  20    -0.716505090086E+03   -0.62725E-06   -0.44739E-06  1440   0.388E-03    0.826E-03
DAV:  21    -0.716505091055E+03   -0.96906E-06   -0.20500E-06  1440   0.283E-03    0.567E-03
DAV:  22    -0.716505091482E+03   -0.42646E-06   -0.10966E-06  1488   0.202E-03    0.417E-03
DAV:  23    -0.716505091853E+03   -0.37099E-06   -0.46721E-07  1536   0.116E-03    0.246E-03
DAV:  24    -0.716505092168E+03   -0.31534E-06   -0.29011E-07  1344   0.963E-04    0.140E-03
DAV:  25    -0.716505092493E+03   -0.32521E-06   -0.64502E-08  1056   0.537E-04    0.131E-03
DAV:  26    -0.716505092811E+03   -0.31782E-06   -0.34327E-08   912   0.396E-04    0.118E-03
DAV:  27    -0.716505093258E+03   -0.44659E-06   -0.30482E-08   912   0.337E-04    0.108E-03
DAV:  28    -0.716505093577E+03   -0.31980E-06   -0.10866E-08   816   0.250E-04    0.103E-03
DAV:  29    -0.716505093981E+03   -0.40320E-06   -0.15685E-08   720   0.232E-04    0.104E-03
DAV:  30    -0.716505094271E+03   -0.28992E-06   -0.87919E-09   720   0.194E-04    0.102E-03
DAV:  31    -0.716505094496E+03   -0.22509E-06   -0.63276E-09   720   0.165E-04    0.101E-03
DAV:  32    -0.716505094638E+03   -0.14187E-06   -0.36649E-09   624   0.146E-04    0.102E-03
DAV:  33    -0.716505094699E+03   -0.61227E-07   -0.22603E-09   576   0.121E-04    0.101E-03
DAV:  34    -0.716505094783E+03   -0.84015E-07   -0.21063E-09   576   0.115E-04    0.100E-03
DAV:  35    -0.716505094814E+03   -0.31279E-07   -0.13170E-09   576   0.109E-04    0.100E-03
DAV:  36    -0.716505094836E+03   -0.21755E-07   -0.12082E-09   576   0.871E-05    0.100E-03
DAV:  37    -0.716505094843E+03   -0.67594E-08   -0.58297E-10   576   0.797E-05
  13 F= -.71650509E+03 E0= -.71647130E+03  d E =-.159747E-01
 curvature:  -1.27 expect dE=-0.820E-02 dE for cont linesearch -0.938E-07
 trial: gam= 0.40940 g(F)=  0.644E-02 g(S)=  0.000E+00 ort =-0.380E-04 (trialstep = 0.153E+01)
 search vector abs. value=  0.969E-02
 bond charge predicted
       N       E                     dE             d eps       ncg     rms          rms(c)
DAV:   1    -0.716490078312E+03    0.15017E-01   -0.52026E+00   864   0.382E+00    0.703E-01
DAV:   2    -0.716629845137E+03   -0.13977E+00   -0.11506E+00  1488   0.136E+00    0.597E+00
DAV:   3    -0.716490890612E+03    0.13895E+00   -0.95669E-01  1536   0.687E-01    0.112E+00
DAV:   4    -0.716515348168E+03   -0.24458E-01   -0.10762E-01  1584   0.361E-01    0.122E+00
DAV:   5    -0.716512367902E+03    0.29803E-02   -0.72284E-02  1536   0.205E-01    0.780E-01
DAV:   6    -0.716511369439E+03    0.99846E-03   -0.17933E-02  1536   0.149E-01    0.428E-01
DAV:   7    -0.716513069909E+03   -0.17005E-02   -0.18382E-02  1392   0.179E-01    0.590E-01
DAV:   8    -0.716515252919E+03   -0.21830E-02   -0.43016E-02  1488   0.132E-01    0.114E+00
DAV:   9    -0.716510765438E+03    0.44875E-02   -0.30517E-02  1536   0.128E-01    0.294E-01
DAV:  10    -0.716512389058E+03   -0.16236E-02   -0.10249E-02  1392   0.119E-01    0.533E-01
DAV:  11    -0.716511659905E+03    0.72915E-03   -0.13655E-02  1296   0.739E-02    0.340E-01
DAV:  12    -0.716511542350E+03    0.11755E-03   -0.32589E-03  1344   0.677E-02    0.137E-01
DAV:  13    -0.716511669026E+03   -0.12668E-03   -0.18084E-03  1344   0.336E-02    0.197E-01
DAV:  14    -0.716511535323E+03    0.13370E-03   -0.90382E-04  1392   0.255E-02    0.673E-02
DAV:  15    -0.716511569183E+03   -0.33861E-04   -0.10130E-04  1488   0.173E-02    0.536E-02
DAV:  16    -0.716511577316E+03   -0.81321E-05   -0.98715E-05  1488   0.161E-02    0.372E-02
DAV:  17    -0.716511576797E+03    0.51860E-06   -0.52915E-05  1344   0.131E-02    0.172E-02
DAV:  18    -0.716511582874E+03   -0.60774E-05   -0.15109E-05  1296   0.769E-03    0.111E-02
DAV:  19    -0.716511587764E+03   -0.48901E-05   -0.54057E-06  1440   0.433E-03    0.686E-03
DAV:  20    -0.716511591661E+03   -0.38963E-05   -0.17527E-06  1632   0.247E-03    0.538E-03
DAV:  21    -0.716511594907E+03   -0.32459E-05   -0.10542E-06  1536   0.183E-03    0.345E-03
DAV:  22    -0.716511600623E+03   -0.57161E-05   -0.62471E-07  1440   0.144E-03    0.212E-03
DAV:  23    -0.716511604691E+03   -0.40680E-05   -0.29110E-07  1392   0.101E-03    0.160E-03
DAV:  24    -0.716511610598E+03   -0.59074E-05   -0.31062E-07  1056   0.825E-04    0.159E-03
DAV:  25    -0.716511616255E+03   -0.56566E-05   -0.24291E-07  1056   0.693E-04    0.149E-03
DAV:  26    -0.716511620055E+03   -0.38006E-05   -0.99744E-08   960   0.496E-04    0.125E-03
DAV:  27    -0.716511624724E+03   -0.46690E-05   -0.11769E-07   864   0.464E-04    0.128E-03
DAV:  28    -0.716511630245E+03   -0.55210E-05   -0.15672E-07   816   0.473E-04    0.122E-03
DAV:  29    -0.716511632870E+03   -0.26249E-05   -0.69403E-08   864   0.384E-04    0.113E-03
DAV:  30    -0.716511633956E+03   -0.10859E-05   -0.26163E-08   768   0.319E-04    0.106E-03
DAV:  31    -0.716511634544E+03   -0.58825E-06   -0.16949E-08   816   0.265E-04    0.105E-03
DAV:  32    -0.716511634759E+03   -0.21481E-06   -0.39125E-09   624   0.197E-04    0.106E-03
DAV:  33    -0.716511634923E+03   -0.16385E-06   -0.29576E-09   576   0.142E-04    0.104E-03
DAV:  34    -0.716511635075E+03   -0.15239E-06   -0.32769E-09   672   0.135E-04    0.103E-03
DAV:  35    -0.716511635155E+03   -0.79526E-07   -0.11628E-09   576   0.106E-04    0.103E-03
DAV:  36    -0.716511635174E+03   -0.19441E-07   -0.68901E-10   576   0.840E-05    0.102E-03
DAV:  37    -0.716511635232E+03   -0.58033E-07   -0.62155E-10   576   0.748E-05    0.102E-03
DAV:  38    -0.716511635270E+03   -0.37973E-07   -0.51864E-10   576   0.705E-05    0.102E-03
DAV:  39    -0.716511635294E+03   -0.23683E-07   -0.28074E-10   576   0.590E-05    0.102E-03
DAV:  40    -0.716511635327E+03   -0.32618E-07   -0.36412E-10   576   0.618E-05    0.102E-03
DAV:  41    -0.716511635331E+03   -0.45547E-08   -0.10811E-10   576   0.510E-05
  14 F= -.71651164E+03 E0= -.71647718E+03  d E =-.654049E-02
 trial-energy change:   -0.006540  1 .order   -0.006513   -0.009822   -0.003203
 step:   2.2420(harm=  2.2684)  dis= 0.01151  next Energy=  -716.512385 (dE=-0.729E-02)
 bond charge predicted
       N       E                     dE             d eps       ncg     rms          rms(c)
DAV:   1    -0.716507750264E+03    0.38851E-02   -0.11331E+00   864   0.178E+00    0.332E-01
DAV:   2    -0.716538423037E+03   -0.30673E-01   -0.25449E-01  1536   0.637E-01    0.280E+00
DAV:   3    -0.716506752544E+03    0.31670E-01   -0.21115E-01  1536   0.320E-01    0.533E-01
DAV:   4    -0.716512790673E+03   -0.60381E-02   -0.21207E-02  1584   0.176E-01    0.457E-01
DAV:   5    -0.716512678866E+03    0.11181E-03   -0.12450E-02  1488   0.992E-02    0.423E-01
DAV:   6    -0.716512253079E+03    0.42579E-03   -0.47773E-03  1536   0.649E-02    0.194E-01
DAV:   7    -0.716512847137E+03   -0.59406E-03   -0.47595E-03  1392   0.738E-02    0.393E-01
DAV:   8    -0.716512865031E+03   -0.17895E-04   -0.10190E-02  1488   0.592E-02    0.427E-01
DAV:   9    -0.716512241955E+03    0.62308E-03   -0.46359E-03  1584   0.679E-02    0.129E-01
DAV:  10    -0.716512514950E+03   -0.27300E-03   -0.18381E-03  1344   0.582E-02    0.215E-01
DAV:  11    -0.716512460583E+03    0.54367E-04   -0.32487E-03  1392   0.325E-02    0.206E-01
DAV:  12    -0.716512348097E+03    0.11249E-03   -0.10047E-03  1296   0.323E-02    0.403E-02
DAV:  13    -0.716512392830E+03   -0.44733E-04   -0.11515E-04  1344   0.169E-02    0.489E-02
DAV:  14    -0.716512393237E+03   -0.40668E-06   -0.15773E-04  1536   0.807E-03    0.523E-02
DAV:  15    -0.716512386671E+03    0.65654E-05   -0.67179E-05  1488   0.830E-03    0.234E-02
DAV:  16    -0.716512393826E+03   -0.71551E-05   -0.16877E-05  1440   0.738E-03    0.177E-02
DAV:  17    -0.716512394943E+03   -0.11162E-05   -0.11394E-05  1296   0.633E-03    0.860E-03
DAV:  18    -0.716512397919E+03   -0.29765E-05   -0.30068E-06  1296   0.341E-03    0.587E-03
DAV:  19    -0.716512398981E+03   -0.10620E-05   -0.14332E-06  1632   0.202E-03    0.418E-03
DAV:  20    -0.716512400051E+03   -0.10699E-05   -0.39492E-07  1488   0.123E-03    0.251E-03
DAV:  21    -0.716512401713E+03   -0.16616E-05   -0.26400E-07  1248   0.959E-04    0.180E-03
DAV:  22    -0.716512403935E+03   -0.22223E-05   -0.15611E-07  1056   0.769E-04    0.135E-03
DAV:  23    -0.716512405431E+03   -0.14959E-05   -0.65717E-08   960   0.508E-04    0.136E-03
DAV:  24    -0.716512406415E+03   -0.98387E-06   -0.36217E-08   768   0.375E-04    0.114E-03
DAV:  25    -0.716512408032E+03   -0.16169E-05   -0.43755E-08   864   0.359E-04    0.109E-03
DAV:  26    -0.716512409072E+03   -0.10405E-05   -0.21933E-08   768   0.291E-04    0.109E-03
DAV:  27    -0.716512410057E+03   -0.98431E-06   -0.26204E-08   768   0.256E-04    0.107E-03
DAV:  28    -0.716512411005E+03   -0.94885E-06   -0.37062E-08   816   0.271E-04    0.106E-03
DAV:  29    -0.716512411241E+03   -0.23614E-06   -0.73097E-09   720   0.201E-04    0.105E-03
DAV:  30    -0.716512411370E+03   -0.12844E-06   -0.35873E-09   624   0.156E-04    0.105E-03
DAV:  31    -0.716512411409E+03   -0.38941E-07   -0.18386E-09   576   0.130E-04    0.104E-03
DAV:  32    -0.716512411490E+03   -0.81607E-07   -0.37046E-09   672   0.128E-04    0.104E-03
DAV:  33    -0.716512411531E+03   -0.40600E-07   -0.14394E-09   576   0.112E-04    0.104E-03
DAV:  34    -0.716512411557E+03   -0.25924E-07   -0.11121E-09   576   0.987E-05    0.104E-03
DAV:  35    -0.716512411558E+03   -0.12806E-08   -0.57489E-10   576   0.817E-05
  15 F= -.71651241E+03 E0= -.71647759E+03  d E =-.731672E-02
 curvature:  -1.71 expect dE=-0.103E-01 dE for cont linesearch -0.645E-06
 trial: gam= 0.92226 g(F)=  0.603E-02 g(S)=  0.000E+00 ort = 0.605E-04 (trialstep = 0.113E+01)
 search vector abs. value=  0.144E-01
 bond charge predicted
       N       E                     dE             d eps       ncg     rms          rms(c)
DAV:   1    -0.716506002986E+03    0.64086E-02   -0.45440E+00   864   0.354E+00    0.902E-01
DAV:   2    -0.716816110145E+03   -0.31011E+00   -0.22628E+00  1296   0.123E+00    0.871E+00
DAV:   3    -0.716478935944E+03    0.33717E+00   -0.10923E+00  1296   0.840E-01    0.138E+00
DAV:   4    -0.716519546997E+03   -0.40611E-01   -0.15458E-01  1488   0.378E-01    0.126E+00
DAV:   5    -0.716517428252E+03    0.21187E-02   -0.49598E-02  1488   0.203E-01    0.444E-01
DAV:   6    -0.716518456877E+03   -0.10286E-02   -0.99178E-03  1536   0.142E-01    0.419E-01
DAV:   7    -0.716521987509E+03   -0.35306E-02   -0.41335E-02  1488   0.123E-01    0.113E+00
DAV:   8    -0.716517881424E+03    0.41061E-02   -0.34044E-02  1440   0.158E-01    0.378E-01
DAV:   9    -0.716518555556E+03   -0.67413E-03   -0.15439E-02  1296   0.142E-01    0.486E-01
DAV:  10    -0.716518561637E+03   -0.60808E-05   -0.14600E-02  1344   0.856E-02    0.435E-01
DAV:  11    -0.716518191369E+03    0.37027E-03   -0.80678E-03  1344   0.913E-02    0.171E-01
DAV:  12    -0.716518210886E+03   -0.19517E-04   -0.19401E-03  1296   0.586E-02    0.165E-01
DAV:  13    -0.716518159653E+03    0.51234E-04   -0.13790E-03  1488   0.290E-02    0.110E-01
DAV:  14    -0.716518147408E+03    0.12244E-04   -0.34042E-04  1344   0.228E-02    0.455E-02
DAV:  15    -0.716518161214E+03   -0.13806E-04   -0.64442E-05  1392   0.143E-02    0.438E-02
DAV:  16    -0.716518166377E+03   -0.51623E-05   -0.40147E-05  1440   0.112E-02    0.327E-02
DAV:  17    -0.716518167948E+03   -0.15717E-05   -0.20503E-05  1296   0.883E-03    0.195E-02
DAV:  18    -0.716518170125E+03   -0.21768E-05   -0.10770E-05  1392   0.585E-03    0.130E-02
DAV:  19    -0.716518172836E+03   -0.27106E-05   -0.33498E-06  1536   0.316E-03    0.863E-03
DAV:  20    -0.716518176116E+03   -0.32800E-05   -0.13793E-06  1488   0.218E-03    0.559E-03
DAV:  21    -0.716518179971E+03   -0.38555E-05   -0.11604E-06  1440   0.195E-03    0.325E-03
DAV:  22    -0.716518183706E+03   -0.37351E-05   -0.46074E-07  1344   0.134E-03    0.233E-03
DAV:  23    -0.716518185519E+03   -0.18125E-05   -0.15094E-07  1200   0.684E-04    0.162E-03
DAV:  24    -0.716518187409E+03   -0.18900E-05   -0.59333E-08   960   0.453E-04    0.120E-03
DAV:  25    -0.716518190499E+03   -0.30906E-05   -0.54520E-08   960   0.504E-04    0.119E-03
DAV:  26    -0.716518192040E+03   -0.15406E-05   -0.16465E-08   864   0.323E-04    0.110E-03
DAV:  27    -0.716518193006E+03   -0.96551E-06   -0.90884E-09   768   0.252E-04    0.112E-03
DAV:  28    -0.716518193426E+03   -0.42081E-06   -0.40707E-09   576   0.184E-04    0.109E-03
DAV:  29    -0.716518194064E+03   -0.63771E-06   -0.66015E-09   720   0.170E-04    0.107E-03
DAV:  30    -0.716518194789E+03   -0.72472E-06   -0.78333E-09   720   0.177E-04    0.107E-03
DAV:  31    -0.716518195086E+03   -0.29737E-06   -0.34397E-09   672   0.146E-04    0.107E-03
DAV:  32    -0.716518195212E+03   -0.12567E-06   -0.14950E-09   576   0.121E-04    0.107E-03
DAV:  33    -0.716518195296E+03   -0.84248E-07   -0.14140E-09   576   0.106E-04    0.106E-03
DAV:  34    -0.716518195382E+03   -0.86096E-07   -0.18709E-09   576   0.108E-04    0.106E-03
DAV:  35    -0.716518195415E+03   -0.32633E-07   -0.11280E-09   576   0.102E-04    0.106E-03
DAV:  36    -0.716518195421E+03   -0.60463E-08   -0.67737E-10   576   0.788E-05
  16 F= -.71651820E+03 E0= -.71648381E+03  d E =-.578386E-02
 trial-energy change:   -0.005784  1 .order   -0.005749   -0.006854   -0.004644
 step:   3.0147(harm=  3.4918)  dis= 0.01694  next Energy=  -716.522254 (dE=-0.984E-02)
 bond charge predicted
       N       E                     dE             d eps       ncg     rms          rms(c)
DAV:   1    -0.716488411212E+03    0.29784E-01   -0.12782E+01   864   0.594E+00    0.150E+00
DAV:   2    -0.717282384588E+03   -0.79397E+00   -0.58945E+00  1296   0.207E+00    0.131E+01
DAV:   3    -0.716482668081E+03    0.79972E+00   -0.31329E+00  1344   0.137E+00    0.376E+00
DAV:   4    -0.716518732802E+03   -0.36065E-01   -0.56378E-01  1488   0.653E-01    0.158E+00
DAV:   5    -0.716522258629E+03   -0.35258E-02   -0.93236E-02  1488   0.364E-01    0.762E-01
DAV:   6    -0.716526260531E+03   -0.40019E-02   -0.52349E-02  1488   0.221E-01    0.119E+00
DAV:   7    -0.716524568358E+03    0.16922E-02   -0.80066E-02  1536   0.171E-01    0.964E-01
DAV:   8    -0.716525294893E+03   -0.72654E-03   -0.47600E-02  1536   0.269E-01    0.672E-01
DAV:   9    -0.716526900695E+03   -0.16058E-02   -0.60742E-02  1440   0.242E-01    0.122E+00
DAV:  10    -0.716522508028E+03    0.43927E-02   -0.53079E-02  1296   0.155E-01    0.475E-01
DAV:  11    -0.716522929001E+03   -0.42097E-03   -0.11989E-02  1296   0.157E-01    0.188E-01
DAV:  12    -0.716522935582E+03   -0.65807E-05   -0.38136E-03  1248   0.816E-02    0.246E-01
DAV:  13    -0.716522808786E+03    0.12680E-03   -0.31538E-03  1536   0.411E-02    0.143E-01
DAV:  14    -0.716522794700E+03    0.14086E-04   -0.67002E-04  1344   0.341E-02    0.519E-02
DAV:  15    -0.716522806418E+03   -0.11718E-04   -0.15040E-04  1536   0.215E-02    0.484E-02
DAV:  16    -0.716522811446E+03   -0.50280E-05   -0.93511E-05  1536   0.168E-02    0.346E-02
DAV:  17    -0.716522814441E+03   -0.29947E-05   -0.54741E-05  1344   0.148E-02    0.187E-02
DAV:  18    -0.716522817352E+03   -0.29116E-05   -0.19996E-05  1296   0.791E-03    0.136E-02
DAV:  19    -0.716522819695E+03   -0.23427E-05   -0.65518E-06  1440   0.453E-03    0.834E-03
DAV:  20    -0.716522822856E+03   -0.31613E-05   -0.29416E-06  1488   0.349E-03    0.474E-03
DAV:  21    -0.716522826656E+03   -0.37994E-05   -0.11727E-06  1536   0.207E-03    0.332E-03
DAV:  22    -0.716522830726E+03   -0.40699E-05   -0.84390E-07  1488   0.162E-03    0.308E-03
DAV:  23    -0.716522832775E+03   -0.20489E-05   -0.28825E-07  1296   0.982E-04    0.173E-03
DAV:  24    -0.716522835176E+03   -0.24011E-05   -0.12654E-07  1200   0.709E-04    0.149E-03
DAV:  25    -0.716522840568E+03   -0.53921E-05   -0.10184E-07   960   0.571E-04    0.124E-03
DAV:  26    -0.716522844929E+03   -0.43609E-05   -0.50162E-08   864   0.438E-04    0.117E-03
DAV:  27    -0.716522848930E+03   -0.40015E-05   -0.38993E-08   816   0.381E-04    0.116E-03
DAV:  28    -0.716522852116E+03   -0.31855E-05   -0.26457E-08   912   0.338E-04    0.112E-03
DAV:  29    -0.716522853527E+03   -0.14112E-05   -0.12947E-08   816   0.279E-04    0.113E-03
[...]
DAV:  22    -0.738225244509E+03   -0.49240E-05   -0.12497E-07   960   0.448E-04    0.978E-04
DAV:  23    -0.738225247905E+03   -0.33955E-05   -0.80983E-08   960   0.407E-04    0.935E-04
DAV:  24    -0.738225250278E+03   -0.23727E-05   -0.47849E-08   960   0.355E-04    0.851E-04
DAV:  25    -0.738225251461E+03   -0.11830E-05   -0.16562E-08   864   0.258E-04    0.840E-04
DAV:  26    -0.738225251759E+03   -0.29843E-06   -0.42019E-09   720   0.202E-04    0.836E-04
DAV:  27    -0.738225251909E+03   -0.15020E-06   -0.25515E-09   576   0.144E-04    0.825E-04
DAV:  28    -0.738225252050E+03   -0.14038E-06   -0.19643E-09   576   0.132E-04    0.823E-04
DAV:  29    -0.738225252215E+03   -0.16570E-06   -0.18759E-09   576   0.119E-04    0.820E-04
DAV:  30    -0.738225252382E+03   -0.16682E-06   -0.19676E-09   576   0.117E-04    0.821E-04
DAV:  31    -0.738225252469E+03   -0.86628E-07   -0.15807E-09   576   0.111E-04    0.822E-04
DAV:  32    -0.738225252566E+03   -0.97360E-07   -0.18685E-09   576   0.102E-04    0.817E-04
DAV:  33    -0.738225252601E+03   -0.34961E-07   -0.12123E-09   576   0.971E-05    0.818E-04
DAV:  34    -0.738225252614E+03   -0.13148E-07   -0.69345E-10   576   0.759E-05    0.816E-04
DAV:  35    -0.738225252629E+03   -0.15076E-07   -0.66940E-10   576   0.740E-05    0.815E-04
DAV:  36    -0.738225252632E+03   -0.23210E-08   -0.53234E-10   576   0.673E-05
  77 F= -.73822525E+03 E0= -.73822265E+03  d E =-.287236E+00
 curvature:  -0.60 expect dE=-0.375E+00 dE for cont linesearch -0.230E-04
 trial: gam= 0.58344 g(F)=  0.620E+00 g(S)=  0.000E+00 ort = 0.802E-02 (trialstep = 0.405E+00)
 search vector abs. value=  0.121E+01
 bond charge predicted
       N       E                     dE             d eps       ncg     rms          rms(c)
DAV:   1    -0.738233739124E+03   -0.84865E-02   -0.50279E+01   864   0.111E+01    0.170E+00
DAV:   2    -0.738409945453E+03   -0.17621E+00   -0.20882E+00  1344   0.310E+00    0.202E+00
DAV:   3    -0.738409518486E+03    0.42697E-03   -0.19917E-01  1536   0.911E-01    0.115E+00
DAV:   4    -0.738412078086E+03   -0.25596E-02   -0.11548E-01  1440   0.684E-01    0.147E+00
DAV:   5    -0.738406889516E+03    0.51886E-02   -0.51224E-02  1536   0.491E-01    0.581E-01
DAV:   6    -0.738406738187E+03    0.15133E-03   -0.44238E-02  1536   0.362E-01    0.456E-01
DAV:   7    -0.738405802363E+03    0.93582E-03   -0.23480E-02  1488   0.252E-01    0.175E-01
DAV:   8    -0.738405775884E+03    0.26480E-04   -0.55789E-03  1488   0.126E-01    0.137E-01
DAV:   9    -0.738405729749E+03    0.46135E-04   -0.14728E-03  1440   0.692E-02    0.702E-02
DAV:  10    -0.738405782069E+03   -0.52321E-04   -0.87864E-04  1488   0.442E-02    0.666E-02
DAV:  11    -0.738405787490E+03   -0.54204E-05   -0.38410E-04  1536   0.279E-02    0.323E-02
DAV:  12    -0.738405814204E+03   -0.26714E-04   -0.11673E-04  1488   0.179E-02    0.177E-02
DAV:  13    -0.738405838700E+03   -0.24497E-04   -0.37681E-05  1392   0.119E-02    0.100E-02
DAV:  14    -0.738405863084E+03   -0.24384E-04   -0.15076E-05  1488   0.722E-03    0.836E-03
DAV:  15    -0.738405881562E+03   -0.18477E-04   -0.56242E-06  1488   0.444E-03    0.450E-03
DAV:  16    -0.738405912754E+03   -0.31193E-04   -0.40732E-06  1344   0.335E-03    0.378E-03
DAV:  17    -0.738405927459E+03   -0.14705E-04   -0.18885E-06  1536   0.239E-03    0.246E-03
DAV:  18    -0.738405942981E+03   -0.15522E-04   -0.11843E-06  1392   0.173E-03    0.221E-03
DAV:  19    -0.738405955443E+03   -0.12462E-04   -0.65115E-07  1392   0.134E-03    0.167E-03
DAV:  20    -0.738405970623E+03   -0.15180E-04   -0.75601E-07  1056   0.112E-03    0.140E-03
DAV:  21    -0.738405982566E+03   -0.11943E-04   -0.63648E-07  1056   0.926E-04    0.149E-03
DAV:  22    -0.738405990278E+03   -0.77122E-05   -0.33322E-07  1008   0.728E-04    0.109E-03
DAV:  23    -0.738405993212E+03   -0.29335E-05   -0.84058E-08  1056   0.468E-04    0.949E-04
DAV:  24    -0.738405996774E+03   -0.35623E-05   -0.85577E-08   864   0.433E-04    0.877E-04
DAV:  25    -0.738405998801E+03   -0.20268E-05   -0.37032E-08   912   0.331E-04    0.871E-04
DAV:  26    -0.738405999933E+03   -0.11325E-05   -0.10127E-08   672   0.248E-04    0.864E-04
DAV:  27    -0.738406000814E+03   -0.88047E-06   -0.97250E-09   768   0.206E-04    0.844E-04
DAV:  28    -0.738406001321E+03   -0.50732E-06   -0.60137E-09   720   0.199E-04    0.831E-04
DAV:  29    -0.738406001510E+03   -0.18928E-06   -0.34062E-09   576   0.159E-04    0.831E-04
DAV:  30    -0.738406001624E+03   -0.11357E-06   -0.26407E-09   576   0.139E-04    0.827E-04
DAV:  31    -0.738406001734E+03   -0.10971E-06   -0.20513E-09   576   0.122E-04    0.825E-04
DAV:  32    -0.738406001776E+03   -0.42506E-07   -0.13241E-09   576   0.103E-04    0.823E-04
DAV:  33    -0.738406001810E+03   -0.33782E-07   -0.10272E-09   576   0.897E-05    0.822E-04
DAV:  34    -0.738406001832E+03   -0.22323E-07   -0.82862E-10   576   0.794E-05    0.822E-04
DAV:  35    -0.738406001852E+03   -0.19209E-07   -0.68740E-10   576   0.715E-05    0.820E-04
DAV:  36    -0.738406001855E+03   -0.32815E-08   -0.39085E-10   576   0.646E-05
  78 F= -.73840600E+03 E0= -.73840560E+03  d E =-.180749E+00
 trial-energy change:   -0.180749  1 .order   -0.179965   -0.253097   -0.106833
 step:   0.6860(harm=  0.7013)  dis= 0.05583  next Energy=  -738.443264 (dE=-0.218E+00)
 bond charge predicted
       N       E                     dE             d eps       ncg     rms          rms(c)
DAV:   1    -0.738362037639E+03    0.43964E-01   -0.24121E+01   864   0.770E+00    0.112E+00
DAV:   2    -0.738445889631E+03   -0.83852E-01   -0.98864E-01  1392   0.216E+00    0.146E+00
DAV:   3    -0.738445607130E+03    0.28250E-03   -0.84517E-02  1584   0.596E-01    0.857E-01
DAV:   4    -0.738447020484E+03   -0.14134E-02   -0.54362E-02  1488   0.466E-01    0.112E+00
DAV:   5    -0.738444356469E+03    0.26640E-02   -0.29639E-02  1440   0.340E-01    0.456E-01
DAV:   6    -0.738444375878E+03   -0.19409E-04   -0.27384E-02  1440   0.266E-01    0.379E-01
DAV:   7    -0.738443605857E+03    0.77002E-03   -0.12088E-02  1392   0.172E-01    0.145E-01
DAV:   8    -0.738443666578E+03   -0.60721E-04   -0.27818E-03  1584   0.101E-01    0.112E-01
DAV:   9    -0.738443617180E+03    0.49398E-04   -0.94589E-04  1488   0.556E-02    0.460E-02
DAV:  10    -0.738443638588E+03   -0.21408E-04   -0.23412E-04  1536   0.258E-02    0.382E-02
DAV:  11    -0.738443653864E+03   -0.15276E-04   -0.14723E-04  1488   0.221E-02    0.228E-02
DAV:  12    -0.738443664750E+03   -0.10887E-04   -0.59659E-05  1488   0.127E-02    0.953E-03
DAV:  13    -0.738443680594E+03   -0.15844E-04   -0.15794E-05  1392   0.745E-03    0.909E-03
DAV:  14    -0.738443689935E+03   -0.93407E-05   -0.65199E-06  1536   0.503E-03    0.507E-03
DAV:  15    -0.738443701674E+03   -0.11739E-04   -0.22060E-06  1632   0.281E-03    0.306E-03
DAV:  16    -0.738443714802E+03   -0.13128E-04   -0.17412E-06  1440   0.238E-03    0.282E-03
DAV:  17    -0.738443723488E+03   -0.86859E-05   -0.82681E-07  1440   0.169E-03    0.182E-03
DAV:  18    -0.738443729504E+03   -0.60157E-05   -0.26733E-07  1248   0.909E-04    0.140E-03
DAV:  19    -0.738443738353E+03   -0.88494E-05   -0.39388E-07  1152   0.941E-04    0.143E-03
DAV:  20    -0.738443746868E+03   -0.85151E-05   -0.33803E-07   912   0.770E-04    0.106E-03
DAV:  21    -0.738443754023E+03   -0.71549E-05   -0.32074E-07   912   0.623E-04    0.105E-03
DAV:  22    -0.738443756840E+03   -0.28167E-05   -0.94860E-08  1056   0.486E-04    0.948E-04
DAV:  23    -0.738443759842E+03   -0.30021E-05   -0.74581E-08   864   0.403E-04    0.895E-04
DAV:  24    -0.738443761378E+03   -0.15359E-05   -0.28331E-08   864   0.322E-04    0.876E-04
DAV:  25    -0.738443762331E+03   -0.95362E-06   -0.15219E-08   768   0.242E-04    0.833E-04
DAV:  26    -0.738443763438E+03   -0.11072E-05   -0.17425E-08   768   0.240E-04    0.844E-04
DAV:  27    -0.738443763624E+03   -0.18552E-06   -0.32274E-09   576   0.175E-04    0.836E-04
DAV:  28    -0.738443763819E+03   -0.19470E-06   -0.26941E-09   720   0.133E-04    0.831E-04
DAV:  29    -0.738443763973E+03   -0.15460E-06   -0.24443E-09   576   0.135E-04    0.830E-04
DAV:  30    -0.738443764023E+03   -0.49746E-07   -0.14409E-09   576   0.118E-04    0.816E-04
DAV:  31    -0.738443764132E+03   -0.10891E-06   -0.38285E-09   720   0.116E-04    0.816E-04
DAV:  32    -0.738443764161E+03   -0.29133E-07   -0.85851E-10   576   0.103E-04    0.813E-04
DAV:  33    -0.738443764175E+03   -0.13810E-07   -0.35919E-10   576   0.663E-05    0.813E-04
DAV:  34    -0.738443764197E+03   -0.22235E-07   -0.33888E-10   576   0.662E-05    0.813E-04
DAV:  35    -0.738443764218E+03   -0.21289E-07   -0.45969E-10   576   0.651E-05    0.812E-04
DAV:  36    -0.738443764226E+03   -0.77271E-08   -0.48958E-10   576   0.662E-05
  79 F= -.73844376E+03 E0= -.73844348E+03  d E =-.218512E+00
 curvature:  -0.67 expect dE=-0.175E+00 dE for cont linesearch -0.107E-04
 trial: gam= 0.35979 g(F)=  0.260E+00 g(S)=  0.000E+00 ort = 0.438E-02 (trialstep = 0.461E+00)
 search vector abs. value=  0.419E+00
 bond charge predicted
       N       E                     dE             d eps       ncg     rms          rms(c)
DAV:   1    -0.738451335986E+03   -0.75718E-02   -0.21599E+01   864   0.734E+00    0.187E+00
DAV:   2    -0.738545588847E+03   -0.94253E-01   -0.11095E+00  1440   0.227E+00    0.155E+00
DAV:   3    -0.738544415588E+03    0.11733E-02   -0.16321E-01  1680   0.812E-01    0.893E-01
DAV:   4    -0.738549558447E+03   -0.51429E-02   -0.18402E-01  1536   0.816E-01    0.118E+00
DAV:   5    -0.738542667650E+03    0.68908E-02   -0.53647E-02  1584   0.451E-01    0.453E-01
DAV:   6    -0.738542550223E+03    0.11743E-03   -0.33139E-02  1440   0.317E-01    0.349E-01
DAV:   7    -0.738541858215E+03    0.69201E-03   -0.16001E-02  1440   0.202E-01    0.131E-01
DAV:   8    -0.738541831107E+03    0.27107E-04   -0.22099E-03  1584   0.918E-02    0.982E-02
DAV:   9    -0.738541814362E+03    0.16745E-04   -0.53742E-04  1536   0.476E-02    0.639E-02
DAV:  10    -0.738541844422E+03   -0.30059E-04   -0.28504E-04  1536   0.320E-02    0.429E-02
DAV:  11    -0.738541865192E+03   -0.20770E-04   -0.20070E-04  1584   0.282E-02    0.281E-02
DAV:  12    -0.738541875744E+03   -0.10552E-04   -0.64258E-05  1680   0.136E-02    0.106E-02
DAV:  13    -0.738541890388E+03   -0.14644E-04   -0.24165E-05  1488   0.774E-03    0.101E-02
DAV:  14    -0.738541900601E+03   -0.10213E-04   -0.65079E-06  1536   0.492E-03    0.466E-03
DAV:  15    -0.738541913992E+03   -0.13391E-04   -0.20639E-06  1440   0.260E-03    0.338E-03
DAV:  16    -0.738541929387E+03   -0.15395E-04   -0.20660E-06  1440   0.244E-03    0.268E-03
DAV:  17    -0.738541934481E+03   -0.50939E-05   -0.72946E-07  1488   0.158E-03    0.163E-03
DAV:  18    -0.738541941698E+03   -0.72173E-05   -0.40347E-07  1296   0.106E-03    0.160E-03
DAV:  19    -0.738541951292E+03   -0.95937E-05   -0.48830E-07  1200   0.101E-03    0.150E-03
DAV:  20    -0.738541959629E+03   -0.83370E-05   -0.35639E-07  1008   0.770E-04    0.118E-03
DAV:  21    -0.738541967483E+03   -0.78544E-05   -0.30209E-07   960   0.706E-04    0.121E-03
DAV:  22    -0.738541970958E+03   -0.34752E-05   -0.10674E-07  1152   0.515E-04    0.101E-03
DAV:  23    -0.738541975378E+03   -0.44201E-05   -0.96911E-08   816   0.425E-04    0.898E-04
DAV:  24    -0.738541977448E+03   -0.20700E-05   -0.42991E-08  1008   0.349E-04    0.856E-04
DAV:  25    -0.738541977989E+03   -0.54094E-06   -0.76690E-09   768   0.241E-04    0.859E-04
DAV:  26    -0.738541978220E+03   -0.23110E-06   -0.48358E-09   720   0.168E-04    0.829E-04
DAV:  27    -0.738541978478E+03   -0.25812E-06   -0.46962E-09   720   0.159E-04    0.819E-04
DAV:  28    -0.738541978684E+03   -0.20542E-06   -0.26400E-09   576   0.141E-04    0.819E-04
DAV:  29    -0.738541978790E+03   -0.10587E-06   -0.22832E-09   576   0.126E-04    0.813E-04
DAV:  30    -0.738541978902E+03   -0.11212E-06   -0.25898E-09   576   0.117E-04    0.821E-04
DAV:  31    -0.738541978953E+03   -0.51470E-07   -0.18107E-09   576   0.115E-04    0.814E-04
DAV:  32    -0.738541978988E+03   -0.34350E-07   -0.10776E-09   576   0.904E-05    0.814E-04
DAV:  33    -0.738541979041E+03   -0.52903E-07   -0.10114E-09   576   0.848E-05    0.810E-04
DAV:  34    -0.738541979055E+03   -0.14967E-07   -0.59650E-10   576   0.699E-05    0.807E-04
DAV:  35    -0.738541979080E+03   -0.24076E-07   -0.66191E-10   576   0.656E-05    0.807E-04
DAV:  36    -0.738541979091E+03   -0.10958E-07   -0.48553E-10   576   0.663E-05    0.806E-04
DAV:  37    -0.738541979100E+03   -0.96916E-08   -0.28947E-10   576   0.517E-05
  80 F= -.73854198E+03 E0= -.73854174E+03  d E =-.982149E-01
 trial-energy change:   -0.098215  1 .order   -0.098207   -0.120624   -0.075790
 step:   1.2414(harm=  1.2414)  dis= 0.06034  next Energy=  -738.606030 (dE=-0.162E+00)
 bond charge predicted
       N       E                     dE             d eps       ncg     rms          rms(c)
DAV:   1    -0.738339943116E+03    0.20204E+00   -0.61665E+01   864   0.124E+01    0.331E+00
DAV:   2    -0.738616015982E+03   -0.27607E+00   -0.32385E+00  1440   0.384E+00    0.262E+00
DAV:   3    -0.738611794988E+03    0.42210E-02   -0.44156E-01  1584   0.135E+00    0.142E+00
DAV:   4    -0.738630940815E+03   -0.19146E-01   -0.55376E-01  1536   0.140E+00    0.208E+00
DAV:   5    -0.738608975150E+03    0.21966E-01   -0.14833E-01  1488   0.746E-01    0.898E-01
DAV:   6    -0.738607538783E+03    0.14364E-02   -0.92656E-02  1488   0.539E-01    0.599E-01
DAV:   7    -0.738605593380E+03    0.19454E-02   -0.45136E-02  1440   0.355E-01    0.229E-01
DAV:   8    -0.738605596308E+03   -0.29277E-05   -0.91163E-03  1584   0.172E-01    0.203E-01
DAV:   9    -0.738605452939E+03    0.14337E-03   -0.19527E-03  1584   0.879E-02    0.118E-01
DAV:  10    -0.738605502806E+03   -0.49867E-04   -0.84766E-04  1440   0.578E-02    0.766E-02
DAV:  11    -0.738605546106E+03   -0.43300E-04   -0.61000E-04  1488   0.475E-02    0.500E-02
DAV:  12    -0.738605571838E+03   -0.25732E-04   -0.20470E-04  1584   0.273E-02    0.202E-02
DAV:  13    -0.738605599221E+03   -0.27383E-04   -0.78399E-05  1488   0.151E-02    0.179E-02
DAV:  14    -0.738605622943E+03   -0.23722E-04   -0.24226E-05  1488   0.995E-03    0.953E-03
DAV:  15    -0.738605651967E+03   -0.29024E-04   -0.77089E-06  1488   0.484E-03    0.707E-03
DAV:  16    -0.738605679781E+03   -0.27815E-04   -0.63830E-06  1488   0.450E-03    0.530E-03
DAV:  17    -0.738605699923E+03   -0.20142E-04   -0.31973E-06  1344   0.290E-03    0.268E-03
DAV:  18    -0.738605717959E+03   -0.18036E-04   -0.13876E-06  1440   0.201E-03    0.239E-03
DAV:  19    -0.738605737988E+03   -0.20029E-04   -0.13069E-06  1296   0.177E-03    0.243E-03
DAV:  20    -0.738605753038E+03   -0.15050E-04   -0.80219E-07  1104   0.117E-03    0.170E-03
DAV:  21    -0.738605766077E+03   -0.13039E-04   -0.68528E-07  1200   0.105E-03    0.139E-03
DAV:  22    -0.738605775507E+03   -0.94295E-05   -0.48365E-07  1152   0.907E-04    0.146E-03
DAV:  23    -0.738605782325E+03   -0.68182E-05   -0.26208E-07  1008   0.643E-04    0.111E-03
DAV:  24    -0.738605786919E+03   -0.45945E-05   -0.12521E-07  1008   0.541E-04    0.929E-04
DAV:  25    -0.738605788651E+03   -0.17313E-05   -0.29075E-08   960   0.358E-04    0.908E-04
DAV:  26    -0.738605789823E+03   -0.11720E-05   -0.13045E-08   816   0.264E-04    0.860E-04
DAV:  27    -0.738605790595E+03   -0.77231E-06   -0.14631E-08   864   0.233E-04    0.848E-04
DAV:  28    -0.738605791103E+03   -0.50775E-06   -0.50037E-09   720   0.196E-04    0.850E-04
DAV:  29    -0.738605791227E+03   -0.12483E-06   -0.22770E-09   576   0.134E-04    0.843E-04
DAV:  30    -0.738605791460E+03   -0.23235E-06   -0.33936E-09   720   0.126E-04    0.835E-04
DAV:  31    -0.738605791574E+03   -0.11456E-06   -0.25025E-09   576   0.132E-04    0.841E-04
DAV:  32    -0.738605791621E+03   -0.46377E-07   -0.21312E-09   576   0.119E-04    0.833E-04
DAV:  33    -0.738605791659E+03   -0.38133E-07   -0.18265E-09   576   0.113E-04    0.837E-04
DAV:  34    -0.738605791675E+03   -0.16102E-07   -0.98714E-10   576   0.953E-05    0.831E-04
DAV:  35    -0.738605791688E+03   -0.12638E-07   -0.83327E-10   576   0.761E-05    0.831E-04
DAV:  36    -0.738605791690E+03   -0.21537E-08   -0.47510E-10   576   0.666E-05
  81 F= -.73860579E+03 E0= -.73860561E+03  d E =-.162027E+00
 curvature:  -0.99 expect dE=-0.126E+00 dE for cont linesearch -0.177E-05
 trial: gam= 0.48961 g(F)=  0.126E+00 g(S)=  0.000E+00 ort =-0.864E-03 (trialstep = 0.617E+00)
 search vector abs. value=  0.226E+00
 bond charge predicted
       N       E                     dE             d eps       ncg     rms          rms(c)
DAV:   1    -0.738589997807E+03    0.15794E-01   -0.21488E+01   864   0.712E+00    0.131E+00
DAV:   2    -0.738669376307E+03   -0.79379E-01   -0.99982E-01  1392   0.204E+00    0.240E+00
DAV:   3    -0.738670576944E+03   -0.12006E-02   -0.54029E-02  1488   0.445E-01    0.226E+00
DAV:   4    -0.738673725910E+03   -0.31490E-02   -0.70842E-02  1488   0.414E-01    0.266E+00
DAV:   5    -0.738672637846E+03    0.10881E-02   -0.98234E-03  1440   0.180E-01    0.247E+00
DAV:   6    -0.738674688404E+03   -0.20506E-02   -0.86353E-02  1296   0.343E-01    0.214E+00
DAV:   7    -0.738671986854E+03    0.27016E-02   -0.79506E-02  1344   0.402E-01    0.139E+00
DAV:   8    -0.738668816536E+03    0.31703E-02   -0.56446E-02  1392   0.415E-01    0.102E+00
DAV:   9    -0.738669414936E+03   -0.59840E-03   -0.11355E-02  1392   0.176E-01    0.968E-01
DAV:  10    -0.738668500105E+03    0.91483E-03   -0.14107E-03  1488   0.705E-02    0.882E-01
DAV:  11    -0.738665742827E+03    0.27573E-02   -0.50660E-03  1200   0.112E-01    0.646E-01
DAV:  12    -0.738663946845E+03    0.17960E-02   -0.79571E-03  1392   0.143E-01    0.354E-01
DAV:  13    -0.738663696292E+03    0.25055E-03   -0.21455E-03  1344   0.767E-02    0.233E-01
DAV:  14    -0.738663696698E+03   -0.40603E-06   -0.31986E-04  1488   0.340E-02    0.206E-01
DAV:  15    -0.738663669246E+03    0.27452E-04   -0.12843E-04  1440   0.216E-02    0.177E-01
DAV:  16    -0.738663575013E+03    0.94232E-04   -0.20814E-04  1200   0.224E-02    0.123E-01
DAV:  17    -0.738663519631E+03    0.55383E-04   -0.26785E-04  1344   0.257E-02    0.775E-02
DAV:  18    -0.738663494093E+03    0.25538E-04   -0.16795E-04  1344   0.213E-02    0.393E-02
DAV:  19    -0.738663495109E+03   -0.10157E-05   -0.52686E-05  1392   0.123E-02    0.237E-02
DAV:  20    -0.738663498083E+03   -0.29737E-05   -0.11302E-05  1536   0.631E-03    0.194E-02
DAV:  21    -0.738663501499E+03   -0.34164E-05   -0.82873E-06  1296   0.482E-03    0.118E-02
DAV:  22    -0.738663507252E+03   -0.57532E-05   -0.94190E-06  1344   0.489E-03    0.744E-03
DAV:  23    -0.738663511434E+03   -0.41816E-05   -0.31472E-06  1392   0.335E-03    0.246E-03
DAV:  24    -0.738663513597E+03   -0.21631E-05   -0.57520E-07  1488   0.137E-03    0.171E-03
DAV:  25    -0.738663515741E+03   -0.21446E-05   -0.26413E-07  1344   0.967E-04    0.172E-03
DAV:  26    -0.738663518708E+03   -0.29668E-05   -0.15277E-07  1152   0.681E-04    0.111E-03
DAV:  27    -0.738663521794E+03   -0.30855E-05   -0.10391E-07  1152   0.530E-04    0.101E-03
DAV:  28    -0.738663524159E+03   -0.23655E-05   -0.39676E-08   912   0.400E-04    0.970E-04
DAV:  29    -0.738663526233E+03   -0.20737E-05   -0.28427E-08   768   0.309E-04    0.991E-04
DAV:  30    -0.738663528177E+03   -0.19440E-05   -0.28483E-08   864   0.309E-04    0.930E-04
DAV:  31    -0.738663529456E+03   -0.12795E-05   -0.43606E-08   816   0.334E-04    0.898E-04
DAV:  32    -0.738663529971E+03   -0.51441E-06   -0.18004E-08   720   0.264E-04    0.966E-04
DAV:  33    -0.738663530076E+03   -0.10481E-06   -0.39479E-09   672   0.195E-04    0.921E-04
DAV:  34    -0.738663530182E+03   -0.10594E-06   -0.26380E-09   624   0.136E-04    0.910E-04
DAV:  35    -0.738663530231E+03   -0.49709E-07   -0.29757E-09   576   0.147E-04    0.880E-04
