<?xml version="1.0" encoding="ISO-8859-1"?>
<modeling>
 <generator>
  <i name="program" type="string">vasp </i>
  <i name="version" type="string">6.4.3  </i>
  <i name="subversion" type="string">19Mar24 (build Mar 01 2025 18:03:59) gamma-only                       parallel </i>
  <i name="platform" type="string">Shaheen </i>
  <i name="date" type="string">2025 04 17 </i>
  <i name="time" type="string">17:41:35 </i>
 </generator>
 <incar>
  <i type="int" name="ISTART">     1</i>
  <i type="string" name="PREC">Accurate      (Accurate strictly avoids any aliasing or wrap around errors)</i>
  <i type="logical" name="ADDGRID"> T  </i>
  <i type="int" name="ISPIN">     1</i>
  <i type="int" name="NELM">    90</i>
  <i type="int" name="NELMIN">     6</i>
  <i type="int" name="IBRION">     2</i>
  <i name="EDIFF">      0.00000001</i>
  <i name="EDIFFG">     -0.02000000</i>
  <i type="int" name="NSW">   100</i>
  <i type="int" name="ISIF">     2</i>
  <i type="logical" name="LREAL"> F  </i>
  <i type="int" name="ISMEAR">     0</i>
  <i name="SIGMA">      0.05000000</i>
  <i type="logical" name="LWAVE"> T  </i>
  <i type="logical" name="LCHARG"> T  </i>
  <i type="logical" name="LASPH"> T  </i>
 </incar>
 <primitive_cell>
  <structure name="primitive_cell" >
   <crystal>
    <varray name="basis" >
     <v>      11.59820000       0.00000000       0.00000000 </v>
     <v>      -5.79910000      10.04433584       0.00000000 </v>
     <v>       0.00000000       0.00000000      21.04820000 </v>
    </varray>
    <i name="volume">   2452.03565189 </i>
    <varray name="rec_basis" >
     <v>       0.08622028       0.04977930       0.00000000 </v>
     <v>       0.00000000       0.09955860       0.00000000 </v>
     <v>       0.00000000       0.00000000       0.04751000 </v>
    </varray>
   </crystal>
   <varray name="positions" >
    <v>       0.00000000       0.00000000       0.45993000 </v>
    <v>       0.22222000       0.11111000       0.30996000 </v>
    <v>       0.11111000       0.22222000       0.15999000 </v>
    <v>       0.33333000       0.00000000       0.45993000 </v>
    <v>       0.55556000       0.11111000       0.30996000 </v>
    <v>       0.44444000       0.22222000       0.15999000 </v>
    <v>       0.66667000       0.00000000       0.45993000 </v>
    <v>       0.88889000       0.11111000       0.30996000 </v>
    <v>       0.77778000       0.22222000       0.15999000 </v>
    <v>       1.00000000       0.33333000       0.45993000 </v>
    <v>       0.22222000       0.44444000       0.30996000 </v>
    <v>       0.11111000       0.55556000       0.15999000 </v>
    <v>       0.33333000       0.33333000       0.45993000 </v>
    <v>       0.55556000       0.44444000       0.30996000 </v>
    <v>       0.44444000       0.55556000       0.15999000 </v>
    <v>       0.66667000       0.33333000       0.45993000 </v>
    <v>       0.88889000       0.44444000       0.30996000 </v>
    <v>       0.77778000       0.55556000       0.15999000 </v>
    <v>       1.00000000       0.66667000       0.45993000 </v>
    <v>       0.22222000       0.77778000       0.30996000 </v>
    <v>       0.11111000       0.88889000       0.15999000 </v>
    <v>       0.33333000       0.66667000       0.45993000 </v>
    <v>       0.55556000       0.77778000       0.30996000 </v>
    <v>       0.44444000       0.88889000       0.15999000 </v>
    <v>       0.66667000       0.66667000       0.45993000 </v>
    <v>       0.88889000       0.77778000       0.30996000 </v>
    <v>       0.77778000       0.88889000       0.15999000 </v>
    <v>       0.00000000       0.00000000       0.12250000 </v>
    <v>       0.11111000       0.22222000       0.27247000 </v>
    <v>       0.22222000       0.11111000       0.42244000 </v>
    <v>       0.11111000       0.22222000       0.04751000 </v>
    <v>       0.11111000       0.22222000       0.49742000 </v>
    <v>       0.00000000       0.00000000       0.34745000 </v>
    <v>       0.22222000       0.11111000       0.19748000 </v>
    <v>       0.33333000       0.00000000       0.12250000 </v>
    <v>       0.44444000       0.22222000       0.27247000 </v>
    <v>       0.55556000       0.11111000       0.42244000 </v>
    <v>       0.44444000       0.22222000       0.04751000 </v>
    <v>       0.44444000       0.22222000       0.49742000 </v>
    <v>       0.33333000       0.00000000       0.34745000 </v>
    <v>       0.55556000       0.11111000       0.19748000 </v>
    <v>       0.66667000       0.00000000       0.12250000 </v>
    <v>       0.77778000       0.22222000       0.27247000 </v>
    <v>       0.88889000       0.11111000       0.42244000 </v>
    <v>       0.77778000       0.22222000       0.04751000 </v>
    <v>       0.77778000       0.22222000       0.49742000 </v>
    <v>       0.66667000       0.00000000       0.34745000 </v>
    <v>       0.88889000       0.11111000       0.19748000 </v>
    <v>       1.00000000       0.33333000       0.12250000 </v>
    <v>       0.11111000       0.55556000       0.27247000 </v>
    <v>       0.22222000       0.44444000       0.42244000 </v>
    <v>       0.11111000       0.55556000       0.04751000 </v>
    <v>       0.11111000       0.55556000       0.49742000 </v>
    <v>       1.00000000       0.33333000       0.34745000 </v>
    <v>       0.22222000       0.44444000       0.19748000 </v>
    <v>       0.33333000       0.33333000       0.12250000 </v>
    <v>       0.44444000       0.55556000       0.27247000 </v>
    <v>       0.55556000       0.44444000       0.42244000 </v>
    <v>       0.44444000       0.55556000       0.04751000 </v>
    <v>       0.44444000       0.55556000       0.49742000 </v>
    <v>       0.33333000       0.33333000       0.34745000 </v>
    <v>       0.55556000       0.44444000       0.19748000 </v>
    <v>       0.66667000       0.33333000       0.12250000 </v>
    <v>       0.77778000       0.55556000       0.27247000 </v>
    <v>       0.88889000       0.44444000       0.42244000 </v>
    <v>       0.77778000       0.55556000       0.04751000 </v>
    <v>       0.77778000       0.55556000       0.49742000 </v>
    <v>       0.66667000       0.33333000       0.34745000 </v>
    <v>       0.88889000       0.44444000       0.19748000 </v>
    <v>       1.00000000       0.66667000       0.12250000 </v>
    <v>       0.11111000       0.88889000       0.27247000 </v>
    <v>       0.22222000       0.77778000       0.42244000 </v>
    <v>       0.11111000       0.88889000       0.04751000 </v>
    <v>       0.11111000       0.88889000       0.49742000 </v>
    <v>       1.00000000       0.66667000       0.34745000 </v>
    <v>       0.22222000       0.77778000       0.19748000 </v>
    <v>       0.33333000       0.66667000       0.12250000 </v>
    <v>       0.44444000       0.88889000       0.27247000 </v>
    <v>       0.55556000       0.77778000       0.42244000 </v>
    <v>       0.44444000       0.88889000       0.04751000 </v>
    <v>       0.44444000       0.88889000       0.49742000 </v>
    <v>       0.33333000       0.66667000       0.34745000 </v>
    <v>       0.55556000       0.77778000       0.19748000 </v>
    <v>       0.66667000       0.66667000       0.12250000 </v>
    <v>       0.77778000       0.88889000       0.27247000 </v>
    <v>       0.88889000       0.77778000       0.42244000 </v>
    <v>       0.77778000       0.88889000       0.04751000 </v>
    <v>       0.77778000       0.88889000       0.49742000 </v>
    <v>       0.66667000       0.66667000       0.34745000 </v>
    <v>       0.88889000       0.77778000       0.19748000 </v>
   </varray>
  </structure>
  <varray name="primitive_index" >
   <v type="int" >        1 </v>
   <v type="int" >        2 </v>
   <v type="int" >        3 </v>
   <v type="int" >        4 </v>
   <v type="int" >        5 </v>
   <v type="int" >        6 </v>
   <v type="int" >        7 </v>
   <v type="int" >        8 </v>
   <v type="int" >        9 </v>
   <v type="int" >       10 </v>
   <v type="int" >       11 </v>
   <v type="int" >       12 </v>
   <v type="int" >       13 </v>
   <v type="int" >       14 </v>
   <v type="int" >       15 </v>
   <v type="int" >       16 </v>
   <v type="int" >       17 </v>
   <v type="int" >       18 </v>
   <v type="int" >       19 </v>
   <v type="int" >       20 </v>
   <v type="int" >       21 </v>
   <v type="int" >       22 </v>
   <v type="int" >       23 </v>
   <v type="int" >       24 </v>
   <v type="int" >       25 </v>
   <v type="int" >       26 </v>
   <v type="int" >       27 </v>
   <v type="int" >       28 </v>
   <v type="int" >       29 </v>
   <v type="int" >       30 </v>
   <v type="int" >       31 </v>
   <v type="int" >       32 </v>
   <v type="int" >       33 </v>
   <v type="int" >       34 </v>
   <v type="int" >       35 </v>
   <v type="int" >       36 </v>
   <v type="int" >       37 </v>
   <v type="int" >       38 </v>
   <v type="int" >       39 </v>
   <v type="int" >       40 </v>
   <v type="int" >       41 </v>
   <v type="int" >       42 </v>
   <v type="int" >       43 </v>
   <v type="int" >       44 </v>
   <v type="int" >       45 </v>
   <v type="int" >       46 </v>
   <v type="int" >       47 </v>
   <v type="int" >       48 </v>
   <v type="int" >       49 </v>
   <v type="int" >       50 </v>
   <v type="int" >       51 </v>
   <v type="int" >       52 </v>
   <v type="int" >       53 </v>
   <v type="int" >       54 </v>
   <v type="int" >       55 </v>
   <v type="int" >       56 </v>
   <v type="int" >       57 </v>
   <v type="int" >       58 </v>
   <v type="int" >       59 </v>
   <v type="int" >       60 </v>
   <v type="int" >       61 </v>
   <v type="int" >       62 </v>
   <v type="int" >       63 </v>
   <v type="int" >       64 </v>
   <v type="int" >       65 </v>
   <v type="int" >       66 </v>
   <v type="int" >       67 </v>
   <v type="int" >       68 </v>
   <v type="int" >       69 </v>
   <v type="int" >       70 </v>
   <v type="int" >       71 </v>
   <v type="int" >       72 </v>
   <v type="int" >       73 </v>
   <v type="int" >       74 </v>
   <v type="int" >       75 </v>
   <v type="int" >       76 </v>
   <v type="int" >       77 </v>
   <v type="int" >       78 </v>
   <v type="int" >       79 </v>
   <v type="int" >       80 </v>
   <v type="int" >       81 </v>
   <v type="int" >       82 </v>
   <v type="int" >       83 </v>
   <v type="int" >       84 </v>
   <v type="int" >       85 </v>
   <v type="int" >       86 </v>
   <v type="int" >       87 </v>
   <v type="int" >       88 </v>
   <v type="int" >       89 </v>
   <v type="int" >       90 </v>
  </varray>
 </primitive_cell>
 <kpoints>
  <generation param="Gamma">
   <v type="int" name="divisions">       1        1        1 </v>
   <v name="usershift">      0.00000000       0.00000000       0.00000000 </v>
   <v name="genvec1">      1.00000000      -0.00000000       0.00000000 </v>
   <v name="genvec2">      0.00000000       1.00000000       0.00000000 </v>
   <v name="genvec3">      0.00000000       0.00000000       1.00000000 </v>
   <v name="shift">      0.00000000       0.00000000       0.00000000 </v>
  </generation>
  <varray name="kpointlist" >
   <v>       0.00000000       0.00000000       0.00000000 </v>
  </varray>
  <varray name="weights" >
   <v>       1.00000000 </v>
  </varray>
 </kpoints>
 <parameters>
  <separator name="general" >
   <i type="string" name="SYSTEM">unknown system</i>
   <i type="logical" name="LCOMPAT"> F  </i>
  </separator>
  <separator name="electronic" >
   <i type="string" name="PREC">accura</i>
   <i name="ENMAX">    400.00000000</i>
   <i name="ENAUG">    605.39200000</i>
   <i name="EDIFF">      0.00000001</i>
   <i type="int" name="IALGO">    38</i>
   <i type="int" name="IWAVPR">    11</i>
   <i type="int" name="NBANDS">   432</i>
   <i type="int" name="NBANDSLOW">    -1</i>
   <i type="int" name="NBANDSHIGH">    -1</i>
   <i name="NELECT">    702.00000000</i>
   <i type="int" name="TURBO">     0</i>
   <i type="int" name="IRESTART">     0</i>
   <i type="int" name="NREBOOT">     0</i>
   <i type="int" name="NMIN">     0</i>
   <i name="EREF">      0.00000000</i>
   <separator name="electronic smearing" >
    <i type="int" name="ISMEAR">     0</i>
    <i name="SIGMA">      0.05000000</i>
    <i name="KSPACING">      0.50000000</i>
    <i type="logical" name="KGAMMA"> T  </i>
    <i type="logical" name="KBLOWUP"> T  </i>
   </separator>
   <separator name="electronic projectors" >
    <i type="logical" name="LREAL"> F  </i>
    <v name="ROPT">      0.00000000      0.00000000</v>
    <i type="int" name="LMAXPAW">  -100</i>
    <i type="int" name="LMAXMIX">     2</i>
    <i type="logical" name="NLSPLINE"> F  </i>
   </separator>
   <separator name="electronic startup" >
    <i type="int" name="ISTART">     0</i>
    <i type="int" name="ICHARG">     2</i>
    <i type="int" name="INIWAV">     1</i>
   </separator>
   <separator name="electronic spin" >
    <i type="int" name="ISPIN">     1</i>
    <i type="logical" name="LNONCOLLINEAR"> F  </i>
    <v name="MAGMOM">      1.00000000      1.00000000      1.00000000      1.00000000      1.00000000      1.00000000      1.00000000      1.00000000      1.00000000      1.00000000      1.00000000      1.00000000      1.00000000      1.00000000      1.00000000      1.00000000      1.00000000      1.00000000      1.00000000      1.00000000
      1.00000000      1.00000000      1.00000000      1.00000000      1.00000000      1.00000000      1.00000000      1.00000000      1.00000000      1.00000000      1.00000000      1.00000000      1.00000000      1.00000000      1.00000000      1.00000000      1.00000000      1.00000000      1.00000000      1.00000000
      1.00000000      1.00000000      1.00000000      1.00000000      1.00000000      1.00000000      1.00000000      1.00000000      1.00000000      1.00000000      1.00000000      1.00000000      1.00000000      1.00000000      1.00000000      1.00000000      1.00000000      1.00000000      1.00000000      1.00000000
      1.00000000      1.00000000      1.00000000      1.00000000      1.00000000      1.00000000      1.00000000      1.00000000      1.00000000      1.00000000      1.00000000      1.00000000      1.00000000      1.00000000      1.00000000      1.00000000      1.00000000      1.00000000      1.00000000      1.00000000
      1.00000000      1.00000000      1.00000000      1.00000000      1.00000000      1.00000000      1.00000000      1.00000000      1.00000000      1.00000000</v>
    <i name="NUPDOWN">     -1.00000000</i>
    <i type="logical" name="LSORBIT"> F  </i>
    <v name="SAXIS">      0.00000000      0.00000000      1.00000000</v>
    <i type="logical" name="LSPIRAL"> F  </i>
    <v name="QSPIRAL">      0.00000000      0.00000000      0.00000000</v>
    <i type="logical" name="LZEROZ"> F  </i>
   </separator>
   <separator name="electronic exchange-correlation" >
    <i type="logical" name="LASPH"> T  </i>
   </separator>
   <separator name="electronic convergence" >
    <i type="int" name="NELM">    90</i>
    <i type="int" name="NELMDL">     0</i>
    <i type="int" name="NELMIN">     6</i>
    <i name="ENINI">    400.00000000</i>
    <separator name="electronic convergence detail" >
     <i type="logical" name="LDIAG"> T  </i>
     <i type="logical" name="LSUBROT"> F  </i>
     <i name="WEIMIN">      0.00100000</i>
     <i name="EBREAK">      0.00000000</i>
     <i name="DEPER">      0.30000000</i>
     <i type="int" name="NRMM">     4</i>
     <i name="TIME">      0.40000000</i>
    </separator>
   </separator>
   <separator name="electronic mixer" >
    <i name="AMIX">      0.40000000</i>
    <i name="BMIX">      1.00000000</i>
    <i name="AMIN">      0.10000000</i>
    <i name="AMIX_MAG">      1.60000000</i>
    <i name="BMIX_MAG">      1.00000000</i>
    <separator name="electronic mixer details" >
     <i type="int" name="IMIX">     4</i>
     <i type="logical" name="MIXFIRST"> F  </i>
     <i type="int" name="MAXMIX">   -45</i>
     <i name="WC">    100.00000000</i>
     <i type="int" name="INIMIX">     1</i>
     <i type="int" name="MIXPRE">     1</i>
     <i type="int" name="MREMOVE">     5</i>
    </separator>
   </separator>
   <separator name="electronic dipolcorrection" >
    <i type="logical" name="LDIPOL"> F  </i>
    <i type="logical" name="LMONO"> F  </i>
    <i type="int" name="IDIPOL">     0</i>
    <i name="EPSILON">      1.00000000</i>
    <v name="DIPOL">   -100.00000000   -100.00000000   -100.00000000</v>
    <i name="EFIELD">      0.00000000</i>
    <i type="logical" name="LVACPOTAV"> F  </i>
   </separator>
  </separator>
  <separator name="grids" >
   <i type="int" name="NGX">    80</i>
   <i type="int" name="NGY">    80</i>
   <i type="int" name="NGZ">   140</i>
   <i type="int" name="NGXF">   160</i>
   <i type="int" name="NGYF">   160</i>
   <i type="int" name="NGZF">   280</i>
   <i type="logical" name="ADDGRID"> T  </i>
  </separator>
  <separator name="ionic" >
   <i type="int" name="NSW">   100</i>
   <i type="int" name="IBRION">     2</i>
   <i type="int" name="MDALGO">     0</i>
   <i type="int" name="ISIF">     2</i>
   <i name="PSTRESS">      0.00000000</i>
   <i name="EDIFFG">     -0.02000000</i>
   <i type="int" name="NFREE">     1</i>
   <i name="POTIM">      0.50000000</i>
   <i name="SMASS">     -3.00000000</i>
   <i name="SCALEE">      1.00000000</i>
  </separator>
  <separator name="ionic md" >
   <i name="TEBEG">      0.00010000</i>
   <i name="TEEND">      0.00010000</i>
   <i type="int" name="NBLOCK">     1</i>
   <i type="int" name="KBLOCK">   100</i>
   <i type="int" name="NPACO">   256</i>
   <i name="APACO">     10.00000000</i>
  </separator>
  <separator name="symmetry" >
   <i type="int" name="ISYM">     2</i>
   <i name="SYMPREC">      0.00001000</i>
  </separator>
  <separator name="dos" >
   <i type="int" name="LORBIT">     0</i>
   <v name="RWIGS">     -1.00000000     -1.00000000</v>
   <i type="int" name="NEDOS">   301</i>
   <i name="EMIN">     10.00000000</i>
   <i name="EMAX">    -10.00000000</i>
   <i name="EFERMI">      0.00000000</i>
  </separator>
  <separator name="writing" >
   <i type="int" name="NWRITE">     2</i>
   <i type="logical" name="LWAVE"> T  </i>
   <i type="logical" name="LDOWNSAMPLE"> F  </i>
   <i type="logical" name="LCHARG"> T  </i>
   <i type="logical" name="LPARD"> F  </i>
   <i type="logical" name="LVTOT"> F  </i>
   <i type="logical" name="LVHAR"> F  </i>
   <i type="logical" name="LELF"> F  </i>
   <i type="logical" name="LOPTICS"> F  </i>
   <v name="STM">      0.00000000      0.00000000      0.00000000      0.00000000      0.00000000      0.00000000      0.00000000</v>
  </separator>
  <separator name="performance" >
   <i type="int" name="NPAR">    48</i>
   <i type="int" name="NSIM">     4</i>
   <i type="int" name="NBLK">    -1</i>
   <i type="logical" name="LPLANE"> T  </i>
   <i type="logical" name="LSCALAPACK"> T  </i>
   <i type="logical" name="LSCAAWARE"> T  </i>
   <i type="logical" name="LSCALU"> F  </i>
   <i type="logical" name="LASYNC"> F  </i>
   <i type="logical" name="LORBITALREAL"> F  </i>
  </separator>
  <separator name="miscellaneous" >
   <i type="int" name="IDIOT">     3</i>
   <i type="int" name="PHON_NSTRUCT">    -1</i>
   <i type="logical" name="LMUSIC"> F  </i>
   <v name="POMASS">    140.11500000     16.00000000</v>
   <v name="DARWINR">      0.00000000      0.00000000</v>
   <v name="DARWINV">      1.00000000      1.00000000</v>
   <i type="logical" name="LCORR"> T  </i>
  </separator>
  <i type="logical" name="GGA_COMPAT"> T  </i>
  <i type="logical" name="LBERRY"> F  </i>
  <i type="int" name="ICORELEVEL">     0</i>
  <i type="logical" name="LDAU"> F  </i>
  <i type="int" name="I_CONSTRAINED_M">     0</i>
  <separator name="electronic exchange-correlation" >
   <i type="string" name="GGA    ">PE</i>
   <i type="string" name="XC_C">1</i>
   <i type="int" name="VOSKOWN">     0</i>
   <i type="logical" name="LHFCALC"> F  </i>
   <i type="string" name="PRECFOCK"></i>
   <i type="logical" name="LSYMGRAD"> F  </i>
   <i type="logical" name="LHFONE"> F  </i>
   <i type="logical" name="LRHFCALC"> F  </i>
   <i type="logical" name="LTHOMAS"> F  </i>
   <i type="logical" name="LMODELHF"> F  </i>
   <i type="logical" name="LFOCKACE"> F  </i>
   <i name="ENCUT4O">     -1.00000000</i>
   <i type="int" name="EXXOEP">     0</i>
   <i type="int" name="FOURORBIT">     0</i>
   <i name="AEXX">      0.00000000</i>
   <i name="HFALPHA">      0.00000000</i>
   <i name="MCALPHA">      0.00000000</i>
   <i name="ALDAX">      1.00000000</i>
   <i name="AGGAX">      1.00000000</i>
   <i name="AMGGAX">      1.00000000</i>
   <i name="ALDAC">      1.00000000</i>
   <i name="AGGAC">      1.00000000</i>
   <i name="AMGGAC">      1.00000000</i>
   <i type="int" name="NKREDX">     1</i>
   <i type="int" name="NKREDY">     1</i>
   <i type="int" name="NKREDZ">     1</i>
   <i type="logical" name="SHIFTRED"> F  </i>
   <i type="logical" name="ODDONLY"> F  </i>
   <i type="logical" name="EVENONLY"> F  </i>
   <i type="int" name="LMAXFOCK">     0</i>
   <i type="int" name="NMAXFOCKAE">     0</i>
   <i type="logical" name="LFOCKAEDFT"> F  </i>
   <i name="HFSCREEN">      0.00000000</i>
   <i name="HFSCREENC">      0.00000000</i>
   <i type="int" name="NBANDSGWLOW">     0</i>
  </separator>
  <separator name="vdW DFT" >
   <i type="logical" name="LUSE_VDW"> F  </i>
   <i type="int" name="IVDW_NL">    -1</i>
   <i type="logical" name="LSPIN_VDW"> F  </i>
   <i name="ZAB_VDW">     -0.84910000</i>
   <i name="GAMMA_VDW">      1.39626340</i>
   <i name="ALPHA_VDW">      0.00000000</i>
   <i name="PARAM1">      0.12340000</i>
   <i name="PARAM2">      1.00000000</i>
   <i name="BPARAM">      6.30000000</i>
   <i name="CPARAM">      0.00930000</i>
  </separator>
  <separator name="model GW" >
   <i type="int" name="MODEL_GW">     0</i>
   <i name="MODEL_EPS0">     16.34690435</i>
   <i name="MODEL_ALPHA">      1.00000000</i>
  </separator>
  <separator name="linear response parameters" >
   <i type="logical" name="LEPSILON"> F  </i>
   <i type="logical" name="LRPA"> F  </i>
   <i type="logical" name="LNABLA"> F  </i>
   <i type="logical" name="LVEL"> F  </i>
   <i name="CSHIFT">      0.10000000</i>
   <i name="OMEGAMAX">     -1.00000000</i>
   <i name="DEG_THRESHOLD">      0.00200000</i>
   <i name="RTIME">     -0.10000000</i>
   <i name="WPLASMAI">      0.00000000</i>
   <v name="DFIELD">      0.00000000      0.00000000      0.00000000</v>
   <v name="WPLASMA">      0.00000000      0.00000000      0.00000000      0.00000000      0.00000000      0.00000000      0.00000000      0.00000000      0.00000000</v>
  </separator>
  <separator name="orbital magnetization" >
   <i type="logical" name="NUCIND"> F  </i>
   <v name="MAGPOS">      0.00000000      0.00000000      0.00000000</v>
   <i type="logical" name="LNICSALL"> T  </i>
   <i type="logical" name="ORBITALMAG"> F  </i>
   <i type="logical" name="LMAGBLOCH"> F  </i>
   <i type="logical" name="LCHIMAG"> F  </i>
   <i type="logical" name="LGAUGE"> T  </i>
   <i type="int" name="MAGATOM">     0</i>
   <v name="MAGDIPOL">      0.00000000      0.00000000      0.00000000</v>
   <v name="AVECCONST">      0.00000000      0.00000000      0.00000000</v>
  </separator>
  <separator name="response functions" >
   <i type="logical" name="LALL_IN_ONE"> F  </i>
   <i type="int" name="IALL_IN_ONE">    -1</i>
   <i type="int" name="NBANDS_WAVE">    -1</i>
   <i type="logical" name="LFINITE_TEMPERATURE"> F  </i>
   <i type="logical" name="LADDER"> F  </i>
   <i type="logical" name="LRPAFORCE"> F  </i>
   <i type="logical" name="LFXC"> F  </i>
   <i type="logical" name="LHARTREE"> T  </i>
   <i type="int" name="IBSE">     0</i>
   <v type="int" name="KPOINT">    -1     0     0     0</v>
   <i type="logical" name="LTCTC"> F  </i>
   <i type="logical" name="LTCTE"> F  </i>
   <i type="logical" name="LTETE"> F  </i>
   <i type="logical" name="LTRIPLET"> F  </i>
   <i type="logical" name="LFXCEPS"> F  </i>
   <i type="logical" name="LFXHEG"> F  </i>
   <i type="int" name="NATURALO">     2</i>
   <i type="logical" name="LHOLEGF"> F  </i>
   <i type="logical" name="L2ORDER"> F  </i>
   <i type="logical" name="LDMP1"> F  </i>
   <i type="logical" name="LMP2LT"> F  </i>
   <i type="logical" name="LSMP2LT"> F  </i>
   <i type="logical" name="LGWLF"> F  </i>
   <i name="ENCUTGW">     -1.60000002</i>
   <i name="ENCUTGWSOFT">     -1.60000002</i>
   <i name="ENCUTLF">     -1.00000000</i>
   <i type="logical" name="ESF_SPLINES"> F  </i>
   <i name="ESF_CONV">      0.01000000</i>
   <i type="int" name="ESF_NINTER">    15</i>
   <i type="int" name="LMAXMP2">    -1</i>
   <i name="SCISSOR">      0.00000000</i>
   <i type="int" name="NOMEGA">     0</i>
   <i type="int" name="NOMEGAR">     0</i>
   <i type="int" name="NBANDSGW">    -1</i>
   <i type="int" name="NBANDSO">    -1</i>
   <i type="int" name="NBANDSV">    -1</i>
   <i type="int" name="NELMGW">     1</i>
   <i type="int" name="NELMHF">     1</i>
   <i type="int" name="DIM">     3</i>
   <i type="int" name="IESPILON">     4</i>
   <i type="int" name="ANTIRES">     0</i>
   <i name="OMEGAMAX">    -30.00000000</i>
   <i name="OMEGAMIN">    -30.00000000</i>
   <i name="OMEGATL">   -200.00000000</i>
   <i type="int" name="OMEGAGRID">     0</i>
   <i name="CSHIFT">     -0.10000000</i>
   <i type="logical" name="LSELFENERGY"> F  </i>
   <i type="logical" name="LSPECTRAL"> F  </i>
   <i type="logical" name="LSPECTRALGW"> F  </i>
   <i type="logical" name="LSINGLES"> F  </i>
   <i type="logical" name="LFERMIGW"> F  </i>
   <i type="logical" name="ODDONLYGW"> F  </i>
   <i type="logical" name="EVENONLYGW"> F  </i>
   <i type="int" name="NKREDLFX">     1</i>
   <i type="int" name="NKREDLFY">     1</i>
   <i type="int" name="NKREDLFZ">     1</i>
   <i type="int" name="MAXMEM">  2800</i>
   <i type="int" name="TELESCOPE">     0</i>
   <i type="int" name="NTAUPAR">    -1</i>
   <i type="int" name="NOMEGAPAR">    -1</i>
   <i name="DAMP_NEWTON">      0.80000001</i>
   <i name="LAMBDA">      1.00000000</i>
  </separator>
  <separator name="External order field" >
   <i name="OFIELD_KAPPA">      0.00000000</i>
   <v name="OFIELD_K">      0.00000000      0.00000000      0.00000000</v>
   <i name="OFIELD_Q6_NEAR">      0.00000000</i>
   <i name="OFIELD_Q6_FAR">      0.00000000</i>
   <i name="OFIELD_A">      0.00000000</i>
  </separator>
  <separator name="optional k-points parameters" >
   <i type="int" name="KPOINTS_OPT_MODE">     1</i>
   <i type="logical" name="LKPOINTS_OPT"> F  </i>
  </separator>
 </parameters>
 <atominfo>
  <atoms>      90 </atoms>
  <types>       2 </types>
  <array name="atoms" >
   <dimension dim="1">ion</dimension>
   <field type="string">element</field>
   <field type="int">atomtype</field>
   <set>
    <rc><c>Ce</c><c>   1</c></rc>
    <rc><c>Ce</c><c>   1</c></rc>
    <rc><c>Ce</c><c>   1</c></rc>
    <rc><c>Ce</c><c>   1</c></rc>
    <rc><c>Ce</c><c>   1</c></rc>
    <rc><c>Ce</c><c>   1</c></rc>
    <rc><c>Ce</c><c>   1</c></rc>
    <rc><c>Ce</c><c>   1</c></rc>
    <rc><c>Ce</c><c>   1</c></rc>
    <rc><c>Ce</c><c>   1</c></rc>
    <rc><c>Ce</c><c>   1</c></rc>
    <rc><c>Ce</c><c>   1</c></rc>
    <rc><c>Ce</c><c>   1</c></rc>
    <rc><c>Ce</c><c>   1</c></rc>
    <rc><c>Ce</c><c>   1</c></rc>
    <rc><c>Ce</c><c>   1</c></rc>
    <rc><c>Ce</c><c>   1</c></rc>
    <rc><c>Ce</c><c>   1</c></rc>
    <rc><c>Ce</c><c>   1</c></rc>
    <rc><c>Ce</c><c>   1</c></rc>
    <rc><c>Ce</c><c>   1</c></rc>
    <rc><c>Ce</c><c>   1</c></rc>
    <rc><c>Ce</c><c>   1</c></rc>
    <rc><c>Ce</c><c>   1</c></rc>
    <rc><c>Ce</c><c>   1</c></rc>
    <rc><c>Ce</c><c>   1</c></rc>
    <rc><c>Ce</c><c>   1</c></rc>
    <rc><c>O </c><c>   2</c></rc>
    <rc><c>O </c><c>   2</c></rc>
    <rc><c>O </c><c>   2</c></rc>
    <rc><c>O </c><c>   2</c></rc>
    <rc><c>O </c><c>   2</c></rc>
    <rc><c>O </c><c>   2</c></rc>
    <rc><c>O </c><c>   2</c></rc>
    <rc><c>O </c><c>   2</c></rc>
    <rc><c>O </c><c>   2</c></rc>
    <rc><c>O </c><c>   2</c></rc>
    <rc><c>O </c><c>   2</c></rc>
    <rc><c>O </c><c>   2</c></rc>
    <rc><c>O </c><c>   2</c></rc>
    <rc><c>O </c><c>   2</c></rc>
    <rc><c>O </c><c>   2</c></rc>
    <rc><c>O </c><c>   2</c></rc>
    <rc><c>O </c><c>   2</c></rc>
    <rc><c>O </c><c>   2</c></rc>
    <rc><c>O </c><c>   2</c></rc>
    <rc><c>O </c><c>   2</c></rc>
    <rc><c>O </c><c>   2</c></rc>
    <rc><c>O </c><c>   2</c></rc>
    <rc><c>O </c><c>   2</c></rc>
    <rc><c>O </c><c>   2</c></rc>
    <rc><c>O </c><c>   2</c></rc>
    <rc><c>O </c><c>   2</c></rc>
    <rc><c>O </c><c>   2</c></rc>
    <rc><c>O </c><c>   2</c></rc>
    <rc><c>O </c><c>   2</c></rc>
    <rc><c>O </c><c>   2</c></rc>
    <rc><c>O </c><c>   2</c></rc>
    <rc><c>O </c><c>   2</c></rc>
    <rc><c>O </c><c>   2</c></rc>
    <rc><c>O </c><c>   2</c></rc>
    <rc><c>O </c><c>   2</c></rc>
    <rc><c>O </c><c>   2</c></rc>
    <rc><c>O </c><c>   2</c></rc>
    <rc><c>O </c><c>   2</c></rc>
    <rc><c>O </c><c>   2</c></rc>
    <rc><c>O </c><c>   2</c></rc>
    <rc><c>O </c><c>   2</c></rc>
    <rc><c>O </c><c>   2</c></rc>
    <rc><c>O </c><c>   2</c></rc>
    <rc><c>O </c><c>   2</c></rc>
    <rc><c>O </c><c>   2</c></rc>
    <rc><c>O </c><c>   2</c></rc>
    <rc><c>O </c><c>   2</c></rc>
    <rc><c>O </c><c>   2</c></rc>
    <rc><c>O </c><c>   2</c></rc>
    <rc><c>O </c><c>   2</c></rc>
    <rc><c>O </c><c>   2</c></rc>
    <rc><c>O </c><c>   2</c></rc>
    <rc><c>O </c><c>   2</c></rc>
    <rc><c>O </c><c>   2</c></rc>
    <rc><c>O </c><c>   2</c></rc>
    <rc><c>O </c><c>   2</c></rc>
    <rc><c>O </c><c>   2</c></rc>
    <rc><c>O </c><c>   2</c></rc>
    <rc><c>O </c><c>   2</c></rc>
    <rc><c>O </c><c>   2</c></rc>
    <rc><c>O </c><c>   2</c></rc>
    <rc><c>O </c><c>   2</c></rc>
    <rc><c>O </c><c>   2</c></rc>
   </set>
  </array>
  <array name="atomtypes" >
   <dimension dim="1">type</dimension>
   <field type="int">atomspertype</field>
   <field type="string">element</field>
   <field>mass</field>
   <field>valence</field>
   <field type="string">pseudopotential</field>
   <set>
    <rc><c>  27</c><c>Ce</c><c>    140.11500000</c><c>     12.00000000</c><c>  PAW_PBE Ce 23Dec2003                  </c></rc>
    <rc><c>  63</c><c>O </c><c>     16.00000000</c><c>      6.00000000</c><c>  PAW_PBE O 08Apr2002                   </c></rc>
   </set>
  </array>
 </atominfo>
 <structure name="initialpos" >
  <crystal>
   <varray name="basis" >
    <v>      11.59820000       0.00000000       0.00000000 </v>
    <v>      -5.79910000      10.04433584       0.00000000 </v>
    <v>       0.00000000       0.00000000      21.04820000 </v>
   </varray>
   <i name="volume">   2452.03565189 </i>
   <varray name="rec_basis" >
    <v>       0.08622028       0.04977930       0.00000000 </v>
    <v>       0.00000000       0.09955860       0.00000000 </v>
    <v>       0.00000000       0.00000000       0.04751000 </v>
   </varray>
  </crystal>
  <varray name="positions" >
   <v>       0.00000000       0.00000000       0.45993000 </v>
   <v>       0.22222000       0.11111000       0.30996000 </v>
   <v>       0.11111000       0.22222000       0.15999000 </v>
   <v>       0.33333000       0.00000000       0.45993000 </v>
   <v>       0.55556000       0.11111000       0.30996000 </v>
   <v>       0.44444000       0.22222000       0.15999000 </v>
   <v>       0.66667000       0.00000000       0.45993000 </v>
   <v>       0.88889000       0.11111000       0.30996000 </v>
   <v>       0.77778000       0.22222000       0.15999000 </v>
   <v>       0.00000000       0.33333000       0.45993000 </v>
   <v>       0.22222000       0.44444000       0.30996000 </v>
   <v>       0.11111000       0.55556000       0.15999000 </v>
   <v>       0.33333000       0.33333000       0.45993000 </v>
   <v>       0.55556000       0.44444000       0.30996000 </v>
   <v>       0.44444000       0.55556000       0.15999000 </v>
   <v>       0.66667000       0.33333000       0.45993000 </v>
   <v>       0.88889000       0.44444000       0.30996000 </v>
   <v>       0.77778000       0.55556000       0.15999000 </v>
   <v>       0.00000000       0.66667000       0.45993000 </v>
   <v>       0.22222000       0.77778000       0.30996000 </v>
   <v>       0.11111000       0.88889000       0.15999000 </v>
   <v>       0.33333000       0.66667000       0.45993000 </v>
   <v>       0.55556000       0.77778000       0.30996000 </v>
   <v>       0.44444000       0.88889000       0.15999000 </v>
   <v>       0.66667000       0.66667000       0.45993000 </v>
   <v>       0.88889000       0.77778000       0.30996000 </v>
   <v>       0.77778000       0.88889000       0.15999000 </v>
   <v>       0.00000000       0.00000000       0.12250000 </v>
   <v>       0.11111000       0.22222000       0.27247000 </v>
   <v>       0.22222000       0.11111000       0.42244000 </v>
   <v>       0.11111000       0.22222000       0.04751000 </v>
   <v>       0.11111000       0.22222000       0.49742000 </v>
   <v>       0.00000000       0.00000000       0.34745000 </v>
   <v>       0.22222000       0.11111000       0.19748000 </v>
   <v>       0.33333000       0.00000000       0.12250000 </v>
   <v>       0.44444000       0.22222000       0.27247000 </v>
   <v>       0.55556000       0.11111000       0.42244000 </v>
   <v>       0.44444000       0.22222000       0.04751000 </v>
   <v>       0.44444000       0.22222000       0.49742000 </v>
   <v>       0.33333000       0.00000000       0.34745000 </v>
   <v>       0.55556000       0.11111000       0.19748000 </v>
   <v>       0.66667000       0.00000000       0.12250000 </v>
   <v>       0.77778000       0.22222000       0.27247000 </v>
   <v>       0.88889000       0.11111000       0.42244000 </v>
   <v>       0.77778000       0.22222000       0.04751000 </v>
   <v>       0.77778000       0.22222000       0.49742000 </v>
   <v>       0.66667000       0.00000000       0.34745000 </v>
   <v>       0.88889000       0.11111000       0.19748000 </v>
   <v>       0.00000000       0.33333000       0.12250000 </v>
   <v>       0.11111000       0.55556000       0.27247000 </v>
   <v>       0.22222000       0.44444000       0.42244000 </v>
   <v>       0.11111000       0.55556000       0.04751000 </v>
   <v>       0.11111000       0.55556000       0.49742000 </v>
   <v>       0.00000000       0.33333000       0.34745000 </v>
   <v>       0.22222000       0.44444000       0.19748000 </v>
   <v>       0.33333000       0.33333000       0.12250000 </v>
   <v>       0.44444000       0.55556000       0.27247000 </v>
   <v>       0.55556000       0.44444000       0.42244000 </v>
   <v>       0.44444000       0.55556000       0.04751000 </v>
   <v>       0.44444000       0.55556000       0.49742000 </v>
   <v>       0.33333000       0.33333000       0.34745000 </v>
   <v>       0.55556000       0.44444000       0.19748000 </v>
   <v>       0.66667000       0.33333000       0.12250000 </v>
   <v>       0.77778000       0.55556000       0.27247000 </v>
   <v>       0.88889000       0.44444000       0.42244000 </v>
   <v>       0.77778000       0.55556000       0.04751000 </v>
   <v>       0.77778000       0.55556000       0.49742000 </v>
   <v>       0.66667000       0.33333000       0.34745000 </v>
   <v>       0.88889000       0.44444000       0.19748000 </v>
   <v>       0.00000000       0.66667000       0.12250000 </v>
   <v>       0.11111000       0.88889000       0.27247000 </v>
   <v>       0.22222000       0.77778000       0.42244000 </v>
   <v>       0.11111000       0.88889000       0.04751000 </v>
   <v>       0.11111000       0.88889000       0.49742000 </v>
   <v>       0.00000000       0.66667000       0.34745000 </v>
   <v>       0.22222000       0.77778000       0.19748000 </v>
   <v>       0.33333000       0.66667000       0.12250000 </v>
   <v>       0.44444000       0.88889000       0.27247000 </v>
   <v>       0.55556000       0.77778000       0.42244000 </v>
   <v>       0.44444000       0.88889000       0.04751000 </v>
   <v>       0.44444000       0.88889000       0.49742000 </v>
   <v>       0.33333000       0.66667000       0.34745000 </v>
   <v>       0.55556000       0.77778000       0.19748000 </v>
   <v>       0.66667000       0.66667000       0.12250000 </v>
   <v>       0.77778000       0.88889000       0.27247000 </v>
   <v>       0.88889000       0.77778000       0.42244000 </v>
   <v>       0.77778000       0.88889000       0.04751000 </v>
   <v>       0.77778000       0.88889000       0.49742000 </v>
   <v>       0.66667000       0.66667000       0.34745000 </v>
   <v>       0.88889000       0.77778000       0.19748000 </v>
  </varray>
 </structure>
 <calculation>
  <scstep>
   <time name="dav">    0.76    0.78</time>
   <time name="total">    1.17    1.22</time>
   <energy>
    <i name="alphaZ">   1773.46029266 </i>
    <i name="ewald"> 131609.86876791 </i>
    <i name="hartreedc">-182936.93874816 </i>
    <i name="XCdc">   1877.60144036 </i>
    <i name="pawpsdc">  44805.29882530 </i>
    <i name="pawaedc"> -44263.98172726 </i>
    <i name="eentropy">     -0.00552618 </i>
    <i name="bandstr">   2634.03332441 </i>
    <i name="atom">  55934.68872452 </i>
    <i name="e_fr_energy">  11434.02537357 </i>
    <i name="e_wo_entrp">  11434.03089974 </i>
    <i name="e_0_energy">  11434.02813665 </i>
   </energy>
  </scstep>
  <scstep>
   <time name="dav">    0.71    0.71</time>
   <time name="total">    0.71    0.71</time>
   <energy>
    <i name="e_fr_energy">   3543.85853812 </i>
    <i name="e_wo_entrp">   3544.02038620 </i>
    <i name="e_0_energy">   3543.93946216 </i>
   </energy>
  </scstep>
  <scstep>
   <time name="dav">    0.85    0.85</time>
   <time name="total">    0.85    0.85</time>
   <energy>
    <i name="e_fr_energy">    -43.01021033 </i>
    <i name="e_wo_entrp">    -42.80316522 </i>
    <i name="e_0_energy">    -42.90668778 </i>
   </energy>
  </scstep>
  <scstep>
   <time name="dav">    0.88    0.88</time>
   <time name="total">    0.88    0.88</time>
   <energy>
    <i name="e_fr_energy">   -800.09725373 </i>
    <i name="e_wo_entrp">   -800.02128290 </i>
    <i name="e_0_energy">   -800.05926832 </i>
   </energy>
  </scstep>
  <scstep>
   <time name="dav">    0.96    0.96</time>
   <time name="total">    1.17    1.17</time>
   <energy>
    <i name="e_fr_energy">   -860.49424699 </i>
    <i name="e_wo_entrp">   -860.25038070 </i>
    <i name="e_0_energy">   -860.37231384 </i>
   </energy>
  </scstep>
  <scstep>
   <time name="dav">    0.80    0.80</time>
   <time name="total">    1.37    1.37</time>
   <energy>
    <i name="e_fr_energy">   -870.66676463 </i>
    <i name="e_wo_entrp">   -870.23386069 </i>
    <i name="e_0_energy">   -870.45031266 </i>
   </energy>
  </scstep>
  <scstep>
   <time name="dav">    0.97    0.97</time>
   <time name="total">    1.51    1.51</time>
   <energy>
    <i name="e_fr_energy">   -700.09597148 </i>
    <i name="e_wo_entrp">   -700.04397717 </i>
    <i name="e_0_energy">   -700.06997432 </i>
   </energy>
  </scstep>
  <scstep>
   <time name="dav">    0.87    0.87</time>
   <time name="total">    1.41    1.41</time>
   <energy>
    <i name="e_fr_energy">   -887.02691718 </i>
    <i name="e_wo_entrp">   -886.85300823 </i>
    <i name="e_0_energy">   -886.93996271 </i>
   </energy>
  </scstep>
  <scstep>
   <time name="dav">    0.94    0.94</time>
   <time name="total">    1.48    1.48</time>
   <energy>
    <i name="e_fr_energy">   -839.48459549 </i>
    <i name="e_wo_entrp">   -839.40902623 </i>
    <i name="e_0_energy">   -839.44681086 </i>
   </energy>
  </scstep>
  <scstep>
   <time name="dav">    0.89    0.89</time>
   <time name="total">    1.43    1.43</time>
   <energy>
    <i name="e_fr_energy">   -824.64474059 </i>
    <i name="e_wo_entrp">   -824.57382573 </i>
    <i name="e_0_energy">   -824.60928316 </i>
   </energy>
  </scstep>
  <scstep>
   <time name="dav">    0.87    0.87</time>
   <time name="total">    1.41    1.41</time>
   <energy>
    <i name="e_fr_energy">   -834.61124934 </i>
    <i name="e_wo_entrp">   -834.52705558 </i>
    <i name="e_0_energy">   -834.56915246 </i>
   </energy>
  </scstep>
  <scstep>
   <time name="dav">    0.96    0.96</time>
   <time name="total">    1.49    1.49</time>
   <energy>
    <i name="e_fr_energy">   -841.48844118 </i>
    <i name="e_wo_entrp">   -841.44598777 </i>
    <i name="e_0_energy">   -841.46721447 </i>
   </energy>
  </scstep>
  <scstep>
   <time name="dav">    0.99    0.99</time>
   <time name="total">    1.53    1.53</time>
   <energy>
    <i name="e_fr_energy">   -845.84951145 </i>
    <i name="e_wo_entrp">   -845.75114344 </i>
    <i name="e_0_energy">   -845.80032745 </i>
   </energy>
  </scstep>
  <scstep>
   <time name="dav">    0.99    0.99</time>
   <time name="total">    1.53    1.53</time>
   <energy>
    <i name="e_fr_energy">   -846.36657048 </i>
    <i name="e_wo_entrp">   -846.26936667 </i>
    <i name="e_0_energy">   -846.31796857 </i>
   </energy>
  </scstep>
  <scstep>
   <time name="dav">    1.05    1.05</time>
   <time name="total">    1.58    1.58</time>
   <energy>
    <i name="e_fr_energy">   -849.83181291 </i>
    <i name="e_wo_entrp">   -849.75344718 </i>
    <i name="e_0_energy">   -849.79263004 </i>
   </energy>
  </scstep>
  <scstep>
   <time name="dav">    0.88    0.88</time>
   <time name="total">    1.42    1.42</time>
   <energy>
    <i name="e_fr_energy">   -870.90973235 </i>
    <i name="e_wo_entrp">   -870.66928090 </i>
    <i name="e_0_energy">   -870.78950662 </i>
   </energy>
  </scstep>
  <scstep>
   <time name="dav">    0.91    0.91</time>
   <time name="total">    1.45    1.45</time>
   <energy>
    <i name="e_fr_energy">   -870.78954174 </i>
    <i name="e_wo_entrp">   -870.69509332 </i>
    <i name="e_0_energy">   -870.74231753 </i>
   </energy>
  </scstep>
  <scstep>
   <time name="dav">    0.96    0.96</time>
   <time name="total">    1.49    1.50</time>
   <energy>
    <i name="e_fr_energy">   -895.62025900 </i>
    <i name="e_wo_entrp">   -895.45816909 </i>
    <i name="e_0_energy">   -895.53921404 </i>
   </energy>
  </scstep>
  <scstep>
   <time name="dav">    0.99    0.99</time>
   <time name="total">    1.52    1.52</time>
   <energy>
    <i name="e_fr_energy">   -909.84263519 </i>
    <i name="e_wo_entrp">   -909.72027871 </i>
    <i name="e_0_energy">   -909.78145695 </i>
   </energy>
  </scstep>
  <scstep>
   <time name="dav">    1.06    1.06</time>
   <time name="total">    1.59    1.59</time>
   <energy>
    <i name="e_fr_energy">   -924.67558788 </i>
    <i name="e_wo_entrp">   -924.52871412 </i>
    <i name="e_0_energy">   -924.60215100 </i>
   </energy>
  </scstep>
  <scstep>
   <time name="dav">    0.99    0.99</time>
   <time name="total">    1.53    1.53</time>
   <energy>
    <i name="e_fr_energy">   -912.23431459 </i>
    <i name="e_wo_entrp">   -912.08702207 </i>
    <i name="e_0_energy">   -912.16066833 </i>
   </energy>
  </scstep>
  <scstep>
   <time name="dav">    0.77    0.77</time>
   <time name="total">    1.31    1.31</time>
   <energy>
    <i name="e_fr_energy">   -824.76547382 </i>
    <i name="e_wo_entrp">   -824.66978926 </i>
    <i name="e_0_energy">   -824.71763154 </i>
   </energy>
  </scstep>
  <scstep>
   <time name="dav">    0.99    0.99</time>
   <time name="total">    1.53    1.53</time>
   <energy>
    <i name="e_fr_energy">   -793.55302689 </i>
    <i name="e_wo_entrp">   -793.47872513 </i>
    <i name="e_0_energy">   -793.51587601 </i>
   </energy>
  </scstep>
  <scstep>
   <time name="dav">    0.82    0.82</time>
   <time name="total">    1.37    1.37</time>
   <energy>
    <i name="e_fr_energy">   -762.29806237 </i>
    <i name="e_wo_entrp">   -762.18244638 </i>
    <i name="e_0_energy">   -762.24025438 </i>
   </energy>
  </scstep>
  <scstep>
   <time name="dav">    0.82    0.82</time>
   <time name="total">    1.36    1.36</time>
   <energy>
    <i name="e_fr_energy">   -776.60561059 </i>
    <i name="e_wo_entrp">   -776.52726457 </i>
    <i name="e_0_energy">   -776.56643758 </i>
   </energy>
  </scstep>
  <scstep>
   <time name="dav">    0.87    0.88</time>
   <time name="total">    1.41    1.41</time>
   <energy>
    <i name="e_fr_energy">   -809.23662912 </i>
    <i name="e_wo_entrp">   -809.23662912 </i>
    <i name="e_0_energy">   -809.23662912 </i>
   </energy>
  </scstep>
  <scstep>
   <time name="dav">    0.88    0.88</time>
   <time name="total">    1.42    1.42</time>
   <energy>
    <i name="e_fr_energy">   -841.28897189 </i>
    <i name="e_wo_entrp">   -841.23037912 </i>
    <i name="e_0_energy">   -841.25967550 </i>
   </energy>
  </scstep>
  <scstep>
   <time name="dav">    0.84    0.84</time>
   <time name="total">    1.37    1.37</time>
   <energy>
    <i name="e_fr_energy">   -875.46683827 </i>
    <i name="e_wo_entrp">   -875.40964826 </i>
    <i name="e_0_energy">   -875.43824327 </i>
   </energy>
  </scstep>
  <scstep>
   <time name="dav">    0.90    0.90</time>
   <time name="total">    1.44    1.44</time>
   <energy>
    <i name="e_fr_energy">   -969.55643464 </i>
    <i name="e_wo_entrp">   -969.53878912 </i>
    <i name="e_0_energy">   -969.54761188 </i>
   </energy>
  </scstep>
  <scstep>
   <time name="dav">    0.88    0.88</time>
   <time name="total">    1.43    1.43</time>
   <energy>
    <i name="e_fr_energy">  -1054.69913897 </i>
    <i name="e_wo_entrp">  -1054.61488496 </i>
    <i name="e_0_energy">  -1054.65701197 </i>
   </energy>
  </scstep>
  <scstep>
   <time name="dav">    0.91    0.91</time>
   <time name="total">    1.45    1.45</time>
   <energy>
    <i name="e_fr_energy">  -1070.46167868 </i>
    <i name="e_wo_entrp">  -1070.38285790 </i>
    <i name="e_0_energy">  -1070.42226829 </i>
   </energy>
  </scstep>
  <scstep>
   <time name="dav">    1.02    1.02</time>
   <time name="total">    1.56    1.56</time>
   <energy>
    <i name="e_fr_energy">  -1092.21548140 </i>
    <i name="e_wo_entrp">  -1092.13125857 </i>
    <i name="e_0_energy">  -1092.17336998 </i>
   </energy>
  </scstep>
  <scstep>
   <time name="dav">    1.05    1.05</time>
   <time name="total">    1.59    1.59</time>
   <energy>
    <i name="e_fr_energy">  -1092.75555997 </i>
    <i name="e_wo_entrp">  -1092.67222764 </i>
    <i name="e_0_energy">  -1092.71389381 </i>
   </energy>
  </scstep>
  <scstep>
   <time name="dav">    0.77    0.78</time>
   <time name="total">    1.32    1.32</time>
   <energy>
    <i name="e_fr_energy">  -1033.14196321 </i>
    <i name="e_wo_entrp">  -1033.02164762 </i>
    <i name="e_0_energy">  -1033.08180542 </i>
   </energy>
  </scstep>
  <scstep>
   <time name="dav">    0.91    0.91</time>
   <time name="total">    1.44    1.45</time>
   <energy>
    <i name="e_fr_energy">   -940.76039118 </i>
    <i name="e_wo_entrp">   -940.66286638 </i>
    <i name="e_0_energy">   -940.71162878 </i>
   </energy>
  </scstep>
  <scstep>
   <time name="dav">    0.86    0.86</time>
   <time name="total">    1.39    1.39</time>
   <energy>
    <i name="e_fr_energy">   -850.89815809 </i>
    <i name="e_wo_entrp">   -850.84108098 </i>
    <i name="e_0_energy">   -850.86961953 </i>
   </energy>
  </scstep>
  <scstep>
   <time name="dav">    0.94    0.94</time>
   <time name="total">    1.47    1.47</time>
   <energy>
    <i name="e_fr_energy">   -820.38394563 </i>
    <i name="e_wo_entrp">   -820.24052454 </i>
    <i name="e_0_energy">   -820.31223509 </i>
   </energy>
  </scstep>
  <scstep>
   <time name="dav">    0.96    0.96</time>
   <time name="total">    1.50    1.50</time>
   <energy>
    <i name="e_fr_energy">   -827.97863428 </i>
    <i name="e_wo_entrp">   -827.88461766 </i>
    <i name="e_0_energy">   -827.93162597 </i>
   </energy>
  </scstep>
  <scstep>
   <time name="dav">    0.76    0.76</time>
   <time name="total">    1.30    1.30</time>
   <energy>
    <i name="e_fr_energy">   -841.87685077 </i>
    <i name="e_wo_entrp">   -841.79252021 </i>
    <i name="e_0_energy">   -841.83468549 </i>
   </energy>
  </scstep>
  <scstep>
   <time name="dav">    0.93    0.93</time>
   <time name="total">    1.47    1.47</time>
   <energy>
    <i name="e_fr_energy">   -849.49960724 </i>
    <i name="e_wo_entrp">   -849.42416740 </i>
    <i name="e_0_energy">   -849.46188732 </i>
   </energy>
  </scstep>
  <scstep>
   <time name="dav">    0.89    0.89</time>
   <time name="total">    1.43    1.43</time>
   <energy>
    <i name="e_fr_energy">   -821.52141220 </i>
    <i name="e_wo_entrp">   -821.41979236 </i>
    <i name="e_0_energy">   -821.47060228 </i>
   </energy>
  </scstep>
  <scstep>
   <time name="dav">    1.02    1.02</time>
   <time name="total">    1.55    1.55</time>
   <energy>
    <i name="e_fr_energy">   -811.67455760 </i>
    <i name="e_wo_entrp">   -811.55676870 </i>
    <i name="e_0_energy">   -811.61566315 </i>
   </energy>
  </scstep>
  <scstep>
   <time name="dav">    0.85    0.85</time>
   <time name="total">    1.38    1.38</time>
   <energy>
    <i name="e_fr_energy">   -808.24210993 </i>
    <i name="e_wo_entrp">   -808.08936128 </i>
    <i name="e_0_energy">   -808.16573560 </i>
   </energy>
  </scstep>
  <scstep>
   <time name="dav">    0.88    0.88</time>
   <time name="total">    1.42    1.42</time>
   <energy>
    <i name="e_fr_energy">   -796.15603683 </i>
    <i name="e_wo_entrp">   -796.04673666 </i>
    <i name="e_0_energy">   -796.10138674 </i>
   </energy>
  </scstep>
  <scstep>
   <time name="dav">    0.96    0.96</time>
   <time name="total">    1.50    1.50</time>
   <energy>
    <i name="e_fr_energy">   -789.18886270 </i>
    <i name="e_wo_entrp">   -789.02274628 </i>
    <i name="e_0_energy">   -789.10580449 </i>
   </energy>
  </scstep>
  <scstep>
   <time name="dav">    1.05    1.05</time>
   <time name="total">    1.58    1.58</time>
   <energy>
    <i name="e_fr_energy">   -785.60392091 </i>
    <i name="e_wo_entrp">   -785.44278645 </i>
    <i name="e_0_energy">   -785.52335368 </i>
   </energy>
  </scstep>
  <scstep>
   <time name="dav">    0.95    0.95</time>
   <time name="total">    1.49    1.49</time>
   <energy>
    <i name="e_fr_energy">   -779.92991084 </i>
    <i name="e_wo_entrp">   -779.72957611 </i>
    <i name="e_0_energy">   -779.82974348 </i>
   </energy>
  </scstep>
  <scstep>
   <time name="dav">    0.74    0.74</time>
   <time name="total">    1.29    1.30</time>
   <energy>
    <i name="e_fr_energy">   -781.63780120 </i>
    <i name="e_wo_entrp">   -781.37072054 </i>
    <i name="e_0_energy">   -781.50426087 </i>
   </energy>
  </scstep>
  <scstep>
   <time name="dav">    0.82    0.82</time>
   <time name="total">    1.36    1.36</time>
   <energy>
    <i name="e_fr_energy">   -768.45955062 </i>
    <i name="e_wo_entrp">   -768.20650086 </i>
    <i name="e_0_energy">   -768.33302574 </i>
   </energy>
  </scstep>
  <scstep>
   <time name="dav">    1.01    1.01</time>
   <time name="total">    1.55    1.55</time>
   <energy>
    <i name="e_fr_energy">   -770.36769956 </i>
    <i name="e_wo_entrp">   -770.22942725 </i>
    <i name="e_0_energy">   -770.29856341 </i>
   </energy>
  </scstep>
  <scstep>
   <time name="dav">    0.85    0.85</time>
   <time name="total">    1.39    1.39</time>
   <energy>
    <i name="e_fr_energy">   -742.78790844 </i>
    <i name="e_wo_entrp">   -742.70490125 </i>
    <i name="e_0_energy">   -742.74640485 </i>
   </energy>
  </scstep>
  <scstep>
   <time name="dav">    0.86    0.86</time>
   <time name="total">    1.41    1.41</time>
   <energy>
    <i name="e_fr_energy">   -743.81274675 </i>
    <i name="e_wo_entrp">   -743.73124690 </i>
    <i name="e_0_energy">   -743.77199682 </i>
   </energy>
  </scstep>
  <scstep>
   <time name="dav">    1.07    1.08</time>
   <time name="total">    1.61    1.61</time>
   <energy>
    <i name="e_fr_energy">   -743.56741066 </i>
    <i name="e_wo_entrp">   -743.48610566 </i>
    <i name="e_0_energy">   -743.52675816 </i>
   </energy>
  </scstep>
  <scstep>
   <time name="dav">    0.98    0.99</time>
   <time name="total">    1.53    1.53</time>
   <energy>
    <i name="e_fr_energy">   -743.33930147 </i>
    <i name="e_wo_entrp">   -743.25799460 </i>
    <i name="e_0_energy">   -743.29864804 </i>
   </energy>
  </scstep>
  <scstep>
   <time name="dav">    0.87    0.87</time>
   <time name="total">    1.41    1.41</time>
   <energy>
    <i name="e_fr_energy">   -744.39706793 </i>
    <i name="e_wo_entrp">   -744.31712485 </i>
    <i name="e_0_energy">   -744.35709639 </i>
   </energy>
  </scstep>
  <scstep>
   <time name="dav">    0.82    0.82</time>
   <time name="total">    1.35    1.35</time>
   <energy>
    <i name="e_fr_energy">   -726.28877283 </i>
    <i name="e_wo_entrp">   -726.16033334 </i>
    <i name="e_0_energy">   -726.22455309 </i>
   </energy>
  </scstep>
  <scstep>
   <time name="dav">    0.96    0.96</time>
   <time name="total">    1.49    1.49</time>
   <energy>
    <i name="e_fr_energy">   -724.87992588 </i>
    <i name="e_wo_entrp">   -724.75656447 </i>
    <i name="e_0_energy">   -724.81824518 </i>
   </energy>
  </scstep>
  <scstep>
   <time name="dav">    0.87    0.87</time>
   <time name="total">    1.41    1.41</time>
   <energy>
    <i name="e_fr_energy">   -725.56997818 </i>
    <i name="e_wo_entrp">   -725.48909867 </i>
    <i name="e_0_energy">   -725.52953843 </i>
   </energy>
  </scstep>
  <scstep>
   <time name="dav">    0.84    0.85</time>
   <time name="total">    1.38    1.38</time>
   <energy>
    <i name="e_fr_energy">   -723.95452838 </i>
    <i name="e_wo_entrp">   -723.83496270 </i>
    <i name="e_0_energy">   -723.89474554 </i>
   </energy>
  </scstep>
  <scstep>
   <time name="dav">    0.90    0.91</time>
   <time name="total">    1.44    1.44</time>
   <energy>
    <i name="e_fr_energy">   -722.92218831 </i>
    <i name="e_wo_entrp">   -722.75933428 </i>
    <i name="e_0_energy">   -722.84076129 </i>
   </energy>
  </scstep>
  <scstep>
   <time name="dav">    0.84    0.85</time>
   <time name="total">    1.38    1.38</time>
   <energy>
    <i name="e_fr_energy">   -728.23262674 </i>
    <i name="e_wo_entrp">   -728.05150461 </i>
    <i name="e_0_energy">   -728.14206567 </i>
   </energy>
  </scstep>
  <scstep>
   <time name="dav">    0.90    0.90</time>
   <time name="total">    1.45    1.45</time>
   <energy>
    <i name="e_fr_energy">   -720.85740699 </i>
    <i name="e_wo_entrp">   -720.66975240 </i>
    <i name="e_0_energy">   -720.76357970 </i>
   </energy>
  </scstep>
  <scstep>
   <time name="dav">    0.87    0.87</time>
   <time name="total">    1.41    1.41</time>
   <energy>
    <i name="e_fr_energy">   -720.28316367 </i>
    <i name="e_wo_entrp">   -720.10871591 </i>
    <i name="e_0_energy">   -720.19593979 </i>
   </energy>
  </scstep>
  <scstep>
   <time name="dav">    0.84    0.84</time>
   <time name="total">    1.38    1.38</time>
   <energy>
    <i name="e_fr_energy">   -718.61477263 </i>
    <i name="e_wo_entrp">   -718.44385113 </i>
    <i name="e_0_energy">   -718.52931188 </i>
   </energy>
  </scstep>
  <scstep>
   <time name="dav">    0.90    0.90</time>
   <time name="total">    1.44    1.44</time>
   <energy>
    <i name="e_fr_energy">   -717.85908405 </i>
    <i name="e_wo_entrp">   -717.67102665 </i>
    <i name="e_0_energy">   -717.76505535 </i>
   </energy>
  </scstep>
  <scstep>
   <time name="dav">    0.82    0.82</time>
   <time name="total">    1.36    1.36</time>
   <energy>
    <i name="e_fr_energy">   -721.34237631 </i>
    <i name="e_wo_entrp">   -721.17233418 </i>
    <i name="e_0_energy">   -721.25735524 </i>
   </energy>
  </scstep>
  <scstep>
   <time name="dav">    0.96    0.96</time>
   <time name="total">    1.49    1.49</time>
   <energy>
    <i name="e_fr_energy">   -717.90274420 </i>
    <i name="e_wo_entrp">   -717.72072559 </i>
    <i name="e_0_energy">   -717.81173490 </i>
   </energy>
  </scstep>
  <scstep>
   <time name="dav">    0.93    0.93</time>
   <time name="total">    1.46    1.46</time>
   <energy>
    <i name="e_fr_energy">   -717.85232544 </i>
    <i name="e_wo_entrp">   -717.71002779 </i>
    <i name="e_0_energy">   -717.78117661 </i>
   </energy>
  </scstep>
  <scstep>
   <time name="dav">    0.93    0.93</time>
   <time name="total">    1.47    1.47</time>
   <energy>
    <i name="e_fr_energy">   -717.83747301 </i>
    <i name="e_wo_entrp">   -717.65983236 </i>
    <i name="e_0_energy">   -717.74865268 </i>
   </energy>
  </scstep>
  <scstep>
   <time name="dav">    0.93    0.93</time>
   <time name="total">    1.47    1.47</time>
   <energy>
    <i name="e_fr_energy">   -718.79958276 </i>
    <i name="e_wo_entrp">   -718.52338927 </i>
    <i name="e_0_energy">   -718.66148601 </i>
   </energy>
  </scstep>
  <scstep>
   <time name="dav">    0.88    0.88</time>
   <time name="total">    1.41    1.42</time>
   <energy>
    <i name="e_fr_energy">   -720.94567503 </i>
    <i name="e_wo_entrp">   -720.70757852 </i>
    <i name="e_0_energy">   -720.82662677 </i>
   </energy>
  </scstep>
  <scstep>
   <time name="dav">    0.91    0.91</time>
   <time name="total">    1.44    1.45</time>
   <energy>
    <i name="e_fr_energy">   -720.99099560 </i>
    <i name="e_wo_entrp">   -720.72837646 </i>
    <i name="e_0_energy">   -720.85968603 </i>
   </energy>
  </scstep>
  <scstep>
   <time name="dav">    0.85    0.85</time>
   <time name="total">    1.39    1.39</time>
   <energy>
    <i name="e_fr_energy">   -722.02219399 </i>
    <i name="e_wo_entrp">   -721.74646634 </i>
    <i name="e_0_energy">   -721.88433016 </i>
   </energy>
  </scstep>
  <scstep>
   <time name="dav">    0.85    0.85</time>
   <time name="total">    1.38    1.39</time>
   <energy>
    <i name="e_fr_energy">   -722.33804763 </i>
    <i name="e_wo_entrp">   -722.07635349 </i>
    <i name="e_0_energy">   -722.20720056 </i>
   </energy>
  </scstep>
  <scstep>
   <time name="dav">    0.90    0.90</time>
   <time name="total">    1.44    1.44</time>
   <energy>
    <i name="e_fr_energy">   -722.69694653 </i>
    <i name="e_wo_entrp">   -722.42304892 </i>
    <i name="e_0_energy">   -722.55999772 </i>
   </energy>
  </scstep>
  <scstep>
   <time name="dav">    0.85    0.85</time>
   <time name="total">    1.39    1.39</time>
   <energy>
    <i name="e_fr_energy">   -721.90184505 </i>
    <i name="e_wo_entrp">   -721.79080706 </i>
    <i name="e_0_energy">   -721.84632605 </i>
   </energy>
  </scstep>
  <scstep>
   <time name="dav">    0.87    0.87</time>
   <time name="total">    1.41    1.41</time>
   <energy>
    <i name="e_fr_energy">   -721.65286056 </i>
    <i name="e_wo_entrp">   -721.46960162 </i>
    <i name="e_0_energy">   -721.56123109 </i>
   </energy>
  </scstep>
  <scstep>
   <time name="dav">    0.87    0.87</time>
   <time name="total">    1.41    1.41</time>
   <energy>
    <i name="e_fr_energy">   -721.65510670 </i>
    <i name="e_wo_entrp">   -721.44754996 </i>
    <i name="e_0_energy">   -721.55132833 </i>
   </energy>
  </scstep>
  <scstep>
   <time name="dav">    0.88    0.88</time>
   <time name="total">    1.42    1.42</time>
   <energy>
    <i name="e_fr_energy">   -721.65578946 </i>
    <i name="e_wo_entrp">   -721.40964985 </i>
    <i name="e_0_energy">   -721.53271966 </i>
   </energy>
  </scstep>
  <scstep>
   <time name="dav">    0.85    0.85</time>
   <time name="total">    1.39    1.39</time>
   <energy>
    <i name="e_fr_energy">   -721.50479817 </i>
    <i name="e_wo_entrp">   -721.25882287 </i>
    <i name="e_0_energy">   -721.38181052 </i>
   </energy>
  </scstep>
  <scstep>
   <time name="dav">    0.85    0.85</time>
   <time name="total">    1.38    1.38</time>
   <energy>
    <i name="e_fr_energy">   -722.57530129 </i>
    <i name="e_wo_entrp">   -722.44799337 </i>
    <i name="e_0_energy">   -722.51164733 </i>
   </energy>
  </scstep>
  <scstep>
   <time name="dav">    0.84    0.85</time>
   <time name="total">    1.38    1.38</time>
   <energy>
    <i name="e_fr_energy">   -721.06170473 </i>
    <i name="e_wo_entrp">   -720.92412585 </i>
    <i name="e_0_energy">   -720.99291529 </i>
   </energy>
  </scstep>
  <scstep>
   <time name="dav">    0.88    0.88</time>
   <time name="total">    1.42    1.42</time>
   <energy>
    <i name="e_fr_energy">   -720.39699531 </i>
    <i name="e_wo_entrp">   -720.25992937 </i>
    <i name="e_0_energy">   -720.32846234 </i>
   </energy>
  </scstep>
  <scstep>
   <time name="dav">    0.87    0.87</time>
   <time name="total">    1.41    1.41</time>
   <energy>
    <i name="e_fr_energy">   -719.68242455 </i>
    <i name="e_wo_entrp">   -719.55286611 </i>
    <i name="e_0_energy">   -719.61764533 </i>
   </energy>
  </scstep>
  <scstep>
   <time name="dav">    0.88    0.88</time>
   <time name="total">    1.42    1.42</time>
   <energy>
    <i name="e_fr_energy">   -718.93501549 </i>
    <i name="e_wo_entrp">   -718.80343844 </i>
    <i name="e_0_energy">   -718.86922696 </i>
   </energy>
  </scstep>
  <scstep>
   <time name="dav">    0.88    0.88</time>
   <time name="total">    1.42    1.42</time>
   <energy>
    <i name="e_fr_energy">   -718.20661765 </i>
    <i name="e_wo_entrp">   -718.09706488 </i>
    <i name="e_0_energy">   -718.15184126 </i>
   </energy>
  </scstep>
  <scstep>
   <time name="dav">    0.90    0.90</time>
   <time name="total">    1.44    1.44</time>
   <energy>
    <i name="e_fr_energy">   -717.69451491 </i>
    <i name="e_wo_entrp">   -717.57636242 </i>
    <i name="e_0_energy">   -717.63543866 </i>
   </energy>
  </scstep>
  <scstep>
   <time name="dav">    0.93    0.93</time>
   <time name="total">    1.46    1.46</time>
   <energy>
    <i name="e_fr_energy">   -717.39504727 </i>
    <i name="e_wo_entrp">   -717.25728456 </i>
    <i name="e_0_energy">   -717.32616591 </i>
   </energy>
  </scstep>
  <scstep>
   <time name="dav">    0.93    0.93</time>
   <time name="total">    1.47    1.47</time>
   <energy>
    <i name="e_fr_energy">   -716.71235747 </i>
    <i name="e_wo_entrp">   -716.56704825 </i>
    <i name="e_0_energy">   -716.63970286 </i>
   </energy>
  </scstep>
  <scstep>
   <time name="dav">    0.91    0.91</time>
   <time name="total">    1.27    1.27</time>
   <energy>
    <i name="alphaZ">   1773.46029266 </i>
    <i name="ewald"> 131609.86876791 </i>
    <i name="hartreedc">-184668.22976331 </i>
    <i name="XCdc">   1944.29847185 </i>
    <i name="pawpsdc">  51319.23540407 </i>
    <i name="pawaedc"> -50764.26047625 </i>
    <i name="eentropy">     -0.14271124 </i>
    <i name="bandstr">  -7865.08114839 </i>
    <i name="atom">  55934.68872452 </i>
    <i name="e_fr_energy">   -716.16243818 </i>
    <i name="e_wo_entrp">   -716.01972694 </i>
    <i name="e_0_energy">   -716.09108256 </i>
   </energy>
  </scstep>
  <structure>
   <crystal>
    <varray name="basis" >
     <v>      11.59820000       0.00000000       0.00000000 </v>
     <v>      -5.79910000      10.04433584       0.00000000 </v>
     <v>       0.00000000       0.00000000      21.04820000 </v>
    </varray>
    <i name="volume">   2452.03565189 </i>
    <varray name="rec_basis" >
     <v>       0.08622028       0.04977930       0.00000000 </v>
     <v>       0.00000000       0.09955860       0.00000000 </v>
     <v>       0.00000000       0.00000000       0.04751000 </v>
    </varray>
   </crystal>
   <varray name="positions" >
    <v>       0.00000000       0.00000000       0.45993000 </v>
    <v>       0.22222000       0.11111000       0.30996000 </v>
    <v>       0.11111000       0.22222000       0.15999000 </v>
    <v>       0.33333000       0.00000000       0.45993000 </v>
    <v>       0.55556000       0.11111000       0.30996000 </v>
    <v>       0.44444000       0.22222000       0.15999000 </v>
    <v>       0.66667000       0.00000000       0.45993000 </v>
    <v>       0.88889000       0.11111000       0.30996000 </v>
    <v>       0.77778000       0.22222000       0.15999000 </v>
    <v>       0.00000000       0.33333000       0.45993000 </v>
    <v>       0.22222000       0.44444000       0.30996000 </v>
    <v>       0.11111000       0.55556000       0.15999000 </v>
    <v>       0.33333000       0.33333000       0.45993000 </v>
    <v>       0.55556000       0.44444000       0.30996000 </v>
    <v>       0.44444000       0.55556000       0.15999000 </v>
    <v>       0.66667000       0.33333000       0.45993000 </v>
    <v>       0.88889000       0.44444000       0.30996000 </v>
    <v>       0.77778000       0.55556000       0.15999000 </v>
    <v>       0.00000000       0.66667000       0.45993000 </v>
    <v>       0.22222000       0.77778000       0.30996000 </v>
    <v>       0.11111000       0.88889000       0.15999000 </v>
    <v>       0.33333000       0.66667000       0.45993000 </v>
    <v>       0.55556000       0.77778000       0.30996000 </v>
    <v>       0.44444000       0.88889000       0.15999000 </v>
    <v>       0.66667000       0.66667000       0.45993000 </v>
    <v>       0.88889000       0.77778000       0.30996000 </v>
    <v>       0.77778000       0.88889000       0.15999000 </v>
    <v>       0.00000000       0.00000000       0.12250000 </v>
    <v>       0.11111000       0.22222000       0.27247000 </v>
    <v>       0.22222000       0.11111000       0.42244000 </v>
    <v>       0.11111000       0.22222000       0.04751000 </v>
    <v>       0.11111000       0.22222000       0.49742000 </v>
    <v>       0.00000000       0.00000000       0.34745000 </v>
    <v>       0.22222000       0.11111000       0.19748000 </v>
    <v>       0.33333000       0.00000000       0.12250000 </v>
    <v>       0.44444000       0.22222000       0.27247000 </v>
    <v>       0.55556000       0.11111000       0.42244000 </v>
    <v>       0.44444000       0.22222000       0.04751000 </v>
    <v>       0.44444000       0.22222000       0.49742000 </v>
    <v>       0.33333000       0.00000000       0.34745000 </v>
    <v>       0.55556000       0.11111000       0.19748000 </v>
    <v>       0.66667000       0.00000000       0.12250000 </v>
    <v>       0.77778000       0.22222000       0.27247000 </v>
    <v>       0.88889000       0.11111000       0.42244000 </v>
    <v>       0.77778000       0.22222000       0.04751000 </v>
    <v>       0.77778000       0.22222000       0.49742000 </v>
    <v>       0.66667000       0.00000000       0.34745000 </v>
    <v>       0.88889000       0.11111000       0.19748000 </v>
    <v>       0.00000000       0.33333000       0.12250000 </v>
    <v>       0.11111000       0.55556000       0.27247000 </v>
    <v>       0.22222000       0.44444000       0.42244000 </v>
    <v>       0.11111000       0.55556000       0.04751000 </v>
    <v>       0.11111000       0.55556000       0.49742000 </v>
    <v>       0.00000000       0.33333000       0.34745000 </v>
    <v>       0.22222000       0.44444000       0.19748000 </v>
    <v>       0.33333000       0.33333000       0.12250000 </v>
    <v>       0.44444000       0.55556000       0.27247000 </v>
    <v>       0.55556000       0.44444000       0.42244000 </v>
    <v>       0.44444000       0.55556000       0.04751000 </v>
    <v>       0.44444000       0.55556000       0.49742000 </v>
    <v>       0.33333000       0.33333000       0.34745000 </v>
    <v>       0.55556000       0.44444000       0.19748000 </v>
    <v>       0.66667000       0.33333000       0.12250000 </v>
    <v>       0.77778000       0.55556000       0.27247000 </v>
    <v>       0.88889000       0.44444000       0.42244000 </v>
    <v>       0.77778000       0.55556000       0.04751000 </v>
    <v>       0.77778000       0.55556000       0.49742000 </v>
    <v>       0.66667000       0.33333000       0.34745000 </v>
    <v>       0.88889000       0.44444000       0.19748000 </v>
    <v>       0.00000000       0.66667000       0.12250000 </v>
    <v>       0.11111000       0.88889000       0.27247000 </v>
    <v>       0.22222000       0.77778000       0.42244000 </v>
    <v>       0.11111000       0.88889000       0.04751000 </v>
    <v>       0.11111000       0.88889000       0.49742000 </v>
    <v>       0.00000000       0.66667000       0.34745000 </v>
    <v>       0.22222000       0.77778000       0.19748000 </v>
    <v>       0.33333000       0.66667000       0.12250000 </v>
    <v>       0.44444000       0.88889000       0.27247000 </v>
    <v>       0.55556000       0.77778000       0.42244000 </v>
    <v>       0.44444000       0.88889000       0.04751000 </v>
    <v>       0.44444000       0.88889000       0.49742000 </v>
    <v>       0.33333000       0.66667000       0.34745000 </v>
    <v>       0.55556000       0.77778000       0.19748000 </v>
    <v>       0.66667000       0.66667000       0.12250000 </v>
    <v>       0.77778000       0.88889000       0.27247000 </v>
    <v>       0.88889000       0.77778000       0.42244000 </v>
    <v>       0.77778000       0.88889000       0.04751000 </v>
    <v>       0.77778000       0.88889000       0.49742000 </v>
    <v>       0.66667000       0.66667000       0.34745000 </v>
    <v>       0.88889000       0.77778000       0.19748000 </v>
   </varray>
  </structure>
  <varray name="forces" >
   <v>       0.03884333      -0.02242621      -0.07843019 </v>
   <v>      -0.03190874      -0.04750779      -0.04260704 </v>
   <v>      -0.30977982       0.31687952       0.03155335 </v>
   <v>      -0.01686159      -0.07378278      -0.07825743 </v>
   <v>      -0.02001840      -0.02220619      -0.03948045 </v>
   <v>       0.14996630      -0.14833316       0.53379455 </v>
   <v>      -0.01591422      -0.04696625      -0.07470933 </v>
   <v>       0.04445531      -0.02566629      -0.00574593 </v>
   <v>       0.15946033      -0.09206446      -4.81208541 </v>
   <v>       0.03271686       0.03726524      -0.07470933 </v>
   <v>       0.03978276       0.05557092      -0.08476719 </v>
   <v>       0.01064374      -0.15495665      -2.27879082 </v>
   <v>      -0.04018367       0.01070450      -0.07405279 </v>
   <v>      -0.05370742       0.03100800      -0.12119900 </v>
   <v>      -0.21466889       0.12393914      -2.28904448 </v>
   <v>       0.00946786      -0.00546627      -0.09094672 </v>
   <v>       0.00922192       0.02843953      -0.03948045 </v>
   <v>       0.20344344      -0.05570805       0.53379455 </v>
   <v>       0.05546697       0.05149395      -0.07825743 </v>
   <v>      -0.00390101       0.00225225      -0.00249244 </v>
   <v>       0.27388187      -0.15812577      -3.01158174 </v>
   <v>      -0.02629217       0.01517979      -0.14164833 </v>
   <v>      -0.02823444      -0.06223834      -0.08476719 </v>
   <v>       0.13951826       0.06826057      -2.27879082 </v>
   <v>      -0.02936221       0.02944783      -0.07405279 </v>
   <v>       0.02518858       0.05138767      -0.04260704 </v>
   <v>      -0.42931562       0.10983743       0.03155335 </v>
   <v>      -0.16430474       0.09486138      -0.05597455 </v>
   <v>      -0.08807595      -0.01171366      -0.10813094 </v>
   <v>       0.03660193       0.02874920       0.15045517 </v>
   <v>      -0.00894023       0.07848889       0.50412557 </v>
   <v>       0.00748692       0.05314027      -0.13623255 </v>
   <v>      -0.09058936       0.05230179       0.30115247 </v>
   <v>      -0.07780959      -0.06558264       0.03103113 </v>
   <v>       0.02452104       0.21057891       0.22017910 </v>
   <v>       0.05983131       0.08416877      -0.03636556 </v>
   <v>       0.00815945       0.10517370       0.13643291 </v>
   <v>       0.04439412      -0.00081776      -0.04770452 </v>
   <v>       0.08302608       0.07496861      -0.13671456 </v>
   <v>       0.06346319       0.01701509       0.36905776 </v>
   <v>       0.17753482       0.05436144       0.02200174 </v>
   <v>       0.25225528      -0.30889854       0.51559401 </v>
   <v>       0.02551456      -0.01473084      -0.11317755 </v>
   <v>      -0.04083495       0.02357607       0.02357345 </v>
   <v>       0.00926937      -0.00535167       2.68472090 </v>
   <v>      -0.09063205       0.05232644      -0.12638840 </v>
   <v>       0.03080277       0.04713738       0.29812653 </v>
   <v>      -0.04574493       0.02641085       0.08019386 </v>
   <v>       0.39364162      -0.06401022       0.51559401 </v>
   <v>       0.00107816      -0.03106012      -0.09438431 </v>
   <v>       0.00353584      -0.00217590       0.11940941 </v>
   <v>       0.08877113       0.03731689       1.57377342 </v>
   <v>      -0.01983584      -0.01463180      -0.11795335 </v>
   <v>      -0.02542079      -0.05024467       0.29812653 </v>
   <v>      -0.08032933      -0.11433140       0.10139460 </v>
   <v>      -0.07776806      -0.41429965      -0.20554315 </v>
   <v>       0.03797062      -0.02192235       0.16608290 </v>
   <v>       0.06911987      -0.03990638       0.09721428 </v>
   <v>      -0.09570476       0.05525517       1.54753387 </v>
   <v>       0.03972565      -0.02293562      -0.14752450 </v>
   <v>       0.06134659       0.06614463       0.35539739 </v>
   <v>       0.02926721      -0.01689743       0.18001539 </v>
   <v>      -0.31142491       0.17980126       0.13844583 </v>
   <v>      -0.04297664      -0.09389982      -0.03636556 </v>
   <v>      -0.08700337      -0.05965314       0.13643291 </v>
   <v>       0.02290526      -0.03803755      -0.04770452 </v>
   <v>      -0.02341168      -0.10938700      -0.13671456 </v>
   <v>      -0.03186141       0.01839520       0.40057678 </v>
   <v>       0.04168902      -0.18093039       0.02200174 </v>
   <v>      -0.17010617      -0.12652530       0.22017910 </v>
   <v>       0.00975256      -0.00563064      -0.14640522 </v>
   <v>       0.00479009      -0.00276556       0.16792079 </v>
   <v>      -0.09341596       0.05393373       2.15613107 </v>
   <v>       0.03348244      -0.01933109      -0.11274609 </v>
   <v>       0.01699609      -0.06346828       0.36905776 </v>
   <v>      -0.07179604       0.04145146       0.00292808 </v>
   <v>      -0.17553570       0.10134558       0.17309638 </v>
   <v>       0.02743793       0.01459635      -0.09438431 </v>
   <v>       0.00365231      -0.00197418       0.11940941 </v>
   <v>       0.01206819      -0.09553649       1.57377342 </v>
   <v>       0.00275359       0.02449424      -0.11795335 </v>
   <v>       0.00393818      -0.00227371       0.32253920 </v>
   <v>       0.05884923       0.12673294       0.10139460 </v>
   <v>       0.31990999       0.27449895      -0.20554315 </v>
   <v>      -0.03389365       0.08213284      -0.10813094 </v>
   <v>      -0.00659657      -0.04607281       0.15045517 </v>
   <v>      -0.07244349      -0.03150198       0.50412557 </v>
   <v>      -0.04227737      -0.03305400      -0.13623255 </v>
   <v>      -0.02660964      -0.08620002       0.35539739 </v>
   <v>       0.01789144       0.10017640       0.03103113 </v>
  </varray>
  <varray name="stress" >
   <v>     -92.06187090       2.98323258       0.48080801 </v>
   <v>       2.98323258     -88.61713064      -0.27759463 </v>
   <v>       0.48080873      -0.27759505     -81.45660116 </v>
  </varray>
  <energy>
   <i name="e_fr_energy">   -716.16243818 </i>
   <i name="e_wo_entrp">   -716.01972694 </i>
   <i name="e_0_energy">   -716.09108256 </i>
  </energy>
  <time name="totalsc">  134.84  135.03</time>
 </calculation>
 <calculation>
  <scstep>
   <time name="dav">    0.75    0.75</time>
   <time name="total">    1.29    1.29</time>
   <energy>
    <i name="alphaZ">   1773.46029266 </i>
    <i name="ewald"> 131315.52403341 </i>
    <i name="hartreedc">-184321.06017080 </i>
    <i name="XCdc">   1951.12862313 </i>
    <i name="pawpsdc">  50511.29678016 </i>
    <i name="pawaedc"> -49985.34201063 </i>
    <i name="eentropy">     -0.06997456 </i>
    <i name="bandstr">  -7903.74949599 </i>
    <i name="atom">  55934.68872452 </i>
    <i name="e_fr_energy">   -724.12319811 </i>
    <i name="e_wo_entrp">   -724.05322355 </i>
    <i name="e_0_energy">   -724.08821083 </i>
   </energy>
  </scstep>
  <scstep>
   <time name="dav">    1.04    1.05</time>
   <time name="total">    1.59    1.59</time>
   <energy>
    <i name="e_fr_energy">   -857.83649312 </i>
    <i name="e_wo_entrp">   -857.82706417 </i>
    <i name="e_0_energy">   -857.83177864 </i>
   </energy>
  </scstep>
  <scstep>
   <time name="dav">    0.90    0.90</time>
   <time name="total">    1.43    1.44</time>
   <energy>
    <i name="e_fr_energy">   -771.82140285 </i>
    <i name="e_wo_entrp">   -771.74590808 </i>
    <i name="e_0_energy">   -771.78365547 </i>
   </energy>
  </scstep>
  <scstep>
   <time name="dav">    0.88    0.88</time>
   <time name="total">    1.41    1.41</time>
   <energy>
    <i name="e_fr_energy">   -760.76159559 </i>
    <i name="e_wo_entrp">   -760.69211839 </i>
    <i name="e_0_energy">   -760.72685699 </i>
   </energy>
  </scstep>
  <scstep>
   <time name="dav">    0.82    0.82</time>
   <time name="total">    1.36    1.36</time>
   <energy>
    <i name="e_fr_energy">   -733.52154271 </i>
    <i name="e_wo_entrp">   -733.40182091 </i>
    <i name="e_0_energy">   -733.46168181 </i>
   </energy>
  </scstep>
  <scstep>
   <time name="dav">    0.87    0.87</time>
   <time name="total">    1.41    1.41</time>
   <energy>
    <i name="e_fr_energy">   -731.07040152 </i>
    <i name="e_wo_entrp">   -731.01426848 </i>
    <i name="e_0_energy">   -731.04233500 </i>
   </energy>
  </scstep>
  <scstep>
   <time name="dav">    0.87    0.87</time>
   <time name="total">    1.41    1.41</time>
   <energy>
    <i name="e_fr_energy">   -721.06045035 </i>
    <i name="e_wo_entrp">   -720.96952404 </i>
    <i name="e_0_energy">   -721.01498720 </i>
   </energy>
  </scstep>
  <scstep>
   <time name="dav">    0.90    0.90</time>
   <time name="total">    1.45    1.45</time>
   <energy>
    <i name="e_fr_energy">   -717.81805358 </i>
    <i name="e_wo_entrp">   -717.71869660 </i>
    <i name="e_0_energy">   -717.76837509 </i>
   </energy>
  </scstep>
  <scstep>
   <time name="dav">    0.96    0.96</time>
   <time name="total">    1.49    1.49</time>
   <energy>
    <i name="e_fr_energy">   -719.33681909 </i>
    <i name="e_wo_entrp">   -719.24747137 </i>
    <i name="e_0_energy">   -719.29214523 </i>
   </energy>
  </scstep>
  <scstep>
   <time name="dav">    0.96    0.96</time>
   <time name="total">    1.49    1.49</time>
   <energy>
    <i name="e_fr_energy">   -716.70295893 </i>
    <i name="e_wo_entrp">   -716.57626615 </i>
    <i name="e_0_energy">   -716.63961254 </i>
   </energy>
  </scstep>
  <scstep>
   <time name="dav">    0.85    0.85</time>
   <time name="total">    1.39    1.39</time>
   <energy>
    <i name="e_fr_energy">   -715.28111529 </i>
    <i name="e_wo_entrp">   -715.20236624 </i>
    <i name="e_0_energy">   -715.24174076 </i>
   </energy>
  </scstep>
  <scstep>
   <time name="dav">    0.88    0.88</time>
   <time name="total">    1.41    1.41</time>
   <energy>
    <i name="e_fr_energy">   -716.06897844 </i>
    <i name="e_wo_entrp">   -715.97452760 </i>
    <i name="e_0_energy">   -716.02175302 </i>
   </energy>
  </scstep>
  <scstep>
   <time name="dav">    0.93    0.93</time>
   <time name="total">    1.46    1.47</time>
   <energy>
    <i name="e_fr_energy">   -719.16986126 </i>
    <i name="e_wo_entrp">   -719.02573590 </i>
    <i name="e_0_energy">   -719.09779858 </i>
   </energy>
  </scstep>
  <scstep>
   <time name="dav">    0.96    0.96</time>
   <time name="total">    1.49    1.49</time>
   <energy>
    <i name="e_fr_energy">   -716.52512580 </i>
    <i name="e_wo_entrp">   -716.48407805 </i>
    <i name="e_0_energy">   -716.50460193 </i>
   </energy>
  </scstep>
  <scstep>
   <time name="dav">    0.91    0.91</time>
   <time name="total">    1.45    1.45</time>
   <energy>
    <i name="e_fr_energy">   -715.97733854 </i>
    <i name="e_wo_entrp">   -715.91141950 </i>
    <i name="e_0_energy">   -715.94437902 </i>
   </energy>
  </scstep>
  <scstep>
   <time name="dav">    0.85    0.85</time>
[...]
    <v>       0.33323448       0.98801356       0.11404707 </v>
    <v>       0.44724390       0.21872412       0.27231298 </v>
    <v>       0.55803570       0.10961936       0.42064023 </v>
    <v>       0.41575502       0.09250660       0.07251027 </v>
    <v>       0.44545346       0.22072522       0.49460370 </v>
    <v>       0.33472366       0.99691073       0.34836470 </v>
    <v>       0.55445876       0.09855649       0.19590617 </v>
    <v>       0.67710150       0.98870981       0.11400729 </v>
    <v>       0.77993778       0.22006222       0.27579760 </v>
    <v>       0.89059551       0.10940449       0.41901898 </v>
    <v>       0.76376378       0.23623622       0.05673747 </v>
    <v>       0.78005898       0.21994102       0.49469749 </v>
    <v>       0.66754336       0.99521146       0.34691001 </v>
    <v>       0.89683971       0.10316029       0.19542095 </v>
    <v>       0.01129019       0.32289850       0.11400729 </v>
    <v>       0.11606581       0.55725367       0.27222353 </v>
    <v>       0.22433409       0.44313979       0.42093397 </v>
    <v>       0.13941203       0.50229460       0.04565728 </v>
    <v>       0.11269669       0.55403032       0.49440235 </v>
    <v>       0.00478854       0.33245664       0.34691001 </v>
    <v>       0.21921617       0.44223283       0.19741955 </v>
    <v>       0.33263572       0.33183898       0.12635795 </v>
    <v>       0.44665395       0.55334605       0.27316953 </v>
    <v>       0.55755069       0.44244931       0.42104371 </v>
    <v>       0.37943939       0.62056061       0.07029691 </v>
    <v>       0.44607060       0.55392940       0.49499871 </v>
    <v>       0.33587141       0.33121350       0.34840103 </v>
    <v>       0.55322582       0.44677418       0.20098479 </v>
    <v>       0.65616471       0.34383529       0.13205605 </v>
    <v>       0.78127588       0.55275610       0.27231298 </v>
    <v>       0.89038064       0.44196430       0.42064023 </v>
    <v>       0.90749340       0.58424498       0.07251027 </v>
    <v>       0.77927478       0.55454654       0.49460370 </v>
    <v>       0.66856655       0.33143345       0.34791026 </v>
    <v>       0.90144351       0.44554124       0.19590617 </v>
    <v>       0.01198644       0.66676552       0.11404707 </v>
    <v>       0.11549814       0.88450186       0.27240857 </v>
    <v>       0.22413537       0.77586463       0.42099239 </v>
    <v>       0.04866241       0.95133759       0.07099935 </v>
    <v>       0.11197031       0.88802969       0.49454052 </v>
    <v>       0.00308927       0.66527634       0.34836470 </v>
    <v>       0.22537820       0.77462180       0.19175488 </v>
    <v>       0.33394039       0.66605961       0.11970868 </v>
    <v>       0.44274633       0.88393419       0.27222353 </v>
    <v>       0.55686021       0.77566591       0.42093397 </v>
    <v>       0.49770540       0.86058797       0.04565728 </v>
    <v>       0.44596968       0.88730331       0.49440235 </v>
    <v>       0.33566692       0.66433308       0.34801694 </v>
    <v>       0.55776717       0.78078383       0.19741955 </v>
    <v>       0.66816102       0.66736428       0.12635795 </v>
    <v>       0.77882876       0.88178188       0.27090209 </v>
    <v>       0.89042885       0.77610529       0.42052102 </v>
    <v>       0.61986429       0.95805152       0.04503040 </v>
    <v>       0.77978194       0.88887997       0.49375359 </v>
    <v>       0.66878650       0.66412859       0.34840103 </v>
    <v>       0.89726713       0.77878167       0.19581188 </v>
   </varray>
  </structure>
  <varray name="forces" >
   <v>      -0.05870981       0.03389613      -0.00183646 </v>
   <v>       0.00230577      -0.13431532       0.03015027 </v>
   <v>      -0.29863601      -0.01702737      -0.13898248 </v>
   <v>      -0.00634296       0.02049635      -0.08295201 </v>
   <v>       0.07083495      -0.01005264      -0.10520020 </v>
   <v>       0.06231651       0.18405905       0.08264557 </v>
   <v>       0.11373718      -0.03420501      -0.06069081 </v>
   <v>      -0.08352337       0.04822224      -0.03613706 </v>
   <v>       0.05005196      -0.02889751       0.10089615 </v>
   <v>       0.08649100      -0.08139679      -0.06069081 </v>
   <v>      -0.12260167       0.03458404       0.00027762 </v>
   <v>       0.14695847      -0.08724514      -0.08040083 </v>
   <v>      -0.02586406       0.04386942       0.03332881 </v>
   <v>      -0.01091021       0.00629901       0.05719735 </v>
   <v>      -0.35766818       0.20649982      -0.17835912 </v>
   <v>      -0.01728284       0.00997825       0.00174625 </v>
   <v>       0.04412332      -0.05631855      -0.10520020 </v>
   <v>      -0.12824156      -0.14599721       0.08264557 </v>
   <v>      -0.02092184      -0.00475502      -0.08295201 </v>
   <v>      -0.08249907       0.04763086      -0.06367803 </v>
   <v>      -0.15569292       0.08988935       0.00159600 </v>
   <v>       0.12373371      -0.07143769      -0.05108342 </v>
   <v>      -0.09125149       0.08888414       0.00027762 </v>
   <v>       0.14903575      -0.08364720      -0.08040083 </v>
   <v>      -0.05092406       0.00046422       0.03332881 </v>
   <v>       0.11747336       0.06516081       0.03015027 </v>
   <v>      -0.13457187       0.26714005      -0.13898248 </v>
   <v>       0.10183302      -0.05879332      -0.01434313 </v>
   <v>       0.04019079       0.01347259       0.13606104 </v>
   <v>       0.05316171      -0.01973303       0.02009518 </v>
   <v>       0.03397579      -0.14804355      -0.07540826 </v>
   <v>       0.03623218      -0.00734714       0.03187257 </v>
   <v>      -0.05565016       0.03212963      -0.01193926 </v>
   <v>       0.07786224      -0.01254236       0.07607674 </v>
   <v>      -0.24840951      -0.31651773       0.21932045 </v>
   <v>      -0.04465427      -0.03877081      -0.04029156 </v>
   <v>       0.00505308       0.01346182       0.02105896 </v>
   <v>       0.11834927       0.19026891      -0.09008074 </v>
   <v>       0.05475075      -0.05718841       0.00677109 </v>
   <v>       0.03806422       0.07870837       0.06957328 </v>
   <v>      -0.07904134       0.02681042      -0.03685260 </v>
   <v>      -0.18187942      -0.18232466      -0.21896706 </v>
   <v>       0.00461712      -0.00266569      -0.06949810 </v>
   <v>      -0.02694265       0.01555534      -0.03316032 </v>
   <v>       0.20017234      -0.11556956      -0.51499259 </v>
   <v>      -0.01787028       0.01031741      -0.01932078 </v>
   <v>       0.00468630      -0.04397898      -0.03736612 </v>
   <v>       0.01411405      -0.00814875       0.16368738 </v>
   <v>       0.06695808       0.24867452      -0.21896706 </v>
   <v>      -0.01785226       0.00817070       0.01913197 </v>
   <v>       0.03867741       0.00959167       0.01591197 </v>
   <v>      -0.10313789      -0.17349482       0.04305424 </v>
   <v>      -0.02977620       0.03356091       0.04930678 </v>
   <v>       0.04043006       0.01793103      -0.03736612 </v>
   <v>       0.05442829       0.04143101       0.16302237 </v>
   <v>       0.12712235      -0.06272168       0.02566932 </v>
   <v>      -0.20591143       0.11888302       0.03874669 </v>
   <v>       0.01036077      -0.00598179       0.06202237 </v>
   <v>       0.02825876      -0.01631520      -0.10775840 </v>
   <v>       0.01514580      -0.00874443      -0.01657752 </v>
   <v>      -0.01032132      -0.04071876      -0.00891792 </v>
   <v>       0.01905260      -0.01100003       0.08273659 </v>
   <v>       0.08343116      -0.04816900      -0.00979230 </v>
   <v>       0.01124938       0.05805714      -0.04029156 </v>
   <v>      -0.00913174      -0.01110700       0.02105896 </v>
   <v>      -0.10560307      -0.19762793      -0.09008074 </v>
   <v>       0.07690199      -0.01882134       0.00677109 </v>
   <v>      -0.03066756       0.01770592       0.07573564 </v>
   <v>      -0.06273918       0.05504659      -0.03685260 </v>
   <v>       0.14990764       0.37338781       0.21932045 </v>
   <v>      -0.01030261       0.00594822      -0.07795352 </v>
   <v>      -0.01054901       0.00609047       0.07143191 </v>
   <v>       0.13310750      -0.07684965       0.05213743 </v>
   <v>       0.09691663      -0.05595484      -0.01524048 </v>
   <v>      -0.04913134      -0.07231877       0.06957328 </v>
   <v>      -0.06745888       0.03894740       0.13123731 </v>
   <v>      -0.12536952       0.07238213       0.12956636 </v>
   <v>      -0.01600216       0.01137517       0.01913197 </v>
   <v>       0.01103208      -0.03829145       0.01591197 </v>
   <v>       0.09868198       0.17606744       0.04305424 </v>
   <v>      -0.04395270       0.00900649       0.04930678 </v>
   <v>      -0.02467468       0.01424593       0.11849778 </v>
   <v>      -0.00866616      -0.06785179       0.16302237 </v>
   <v>       0.11787974      -0.07873035       0.02566932 </v>
   <v>       0.00842779      -0.04154253       0.13606104 </v>
   <v>       0.04367016      -0.03617287       0.02009518 </v>
   <v>       0.14519736       0.04459788      -0.07540826 </v>
   <v>       0.02447890      -0.02770442       0.03187257 </v>
   <v>       0.03010282       0.02929790      -0.00891792 </v>
   <v>       0.04979313      -0.06115950       0.07607674 </v>
  </varray>
  <varray name="stress" >
   <v>     -39.39203400       0.58650039       0.17814027 </v>
   <v>       0.58650039     -38.71480168      -0.10284933 </v>
   <v>       0.17813569      -0.10284669     -25.74143102 </v>
  </varray>
  <energy>
   <i name="e_fr_energy">   -738.60579169 </i>
   <i name="e_wo_entrp">   -738.60542064 </i>
   <i name="e_0_energy">   -738.60560616 </i>
  </energy>
  <time name="totalsc">   54.65   54.73</time>
 </calculation>
 <calculation>
  <scstep>
   <time name="dav">    0.61    0.61</time>
   <time name="total">    1.14    1.14</time>
   <energy>
    <i name="alphaZ">   1773.46029266 </i>
    <i name="ewald"> 136146.55554063 </i>
    <i name="hartreedc">-189358.33529920 </i>
    <i name="XCdc">   1953.28779589 </i>
    <i name="pawpsdc">  53860.99710427 </i>
    <i name="pawaedc"> -53273.11146466 </i>
    <i name="eentropy">     -0.00035172 </i>
    <i name="bandstr">  -7776.13234020 </i>
    <i name="atom">  55934.68872452 </i>
    <i name="e_fr_energy">   -738.58999781 </i>
    <i name="e_wo_entrp">   -738.58964608 </i>
    <i name="e_0_energy">   -738.58982195 </i>
   </energy>
  </scstep>
  <scstep>
   <time name="dav">    0.90    0.90</time>
   <time name="total">    1.43    1.43</time>
   <energy>
    <i name="e_fr_energy">   -738.66937631 </i>
    <i name="e_wo_entrp">   -738.66918577 </i>
    <i name="e_0_energy">   -738.66928104 </i>
   </energy>
  </scstep>
  <scstep>
   <time name="dav">    0.97    0.97</time>
   <time name="total">    1.51    1.51</time>
   <energy>
    <i name="e_fr_energy">   -738.67057694 </i>
    <i name="e_wo_entrp">   -738.67036706 </i>
    <i name="e_0_energy">   -738.67047200 </i>
   </energy>
  </scstep>
  <scstep>
   <time name="dav">    0.95    0.95</time>
   <time name="total">    1.49    1.49</time>
   <energy>
    <i name="e_fr_energy">   -738.67372591 </i>
    <i name="e_wo_entrp">   -738.67351157 </i>
    <i name="e_0_energy">   -738.67361874 </i>
   </energy>
  </scstep>
  <scstep>
   <time name="dav">    0.92    0.92</time>
   <time name="total">    1.46    1.46</time>
   <energy>
    <i name="e_fr_energy">   -738.67263785 </i>
    <i name="e_wo_entrp">   -738.67243404 </i>
    <i name="e_0_energy">   -738.67253594 </i>
   </energy>
  </scstep>
  <scstep>
   <time name="dav">    0.85    0.85</time>
   <time name="total">    1.40    1.40</time>
   <energy>
    <i name="e_fr_energy">   -738.67468840 </i>
    <i name="e_wo_entrp">   -738.67430936 </i>
    <i name="e_0_energy">   -738.67449888 </i>
   </energy>
  </scstep>
  <scstep>
   <time name="dav">    0.87    0.87</time>
   <time name="total">    1.41    1.41</time>
   <energy>
    <i name="e_fr_energy">   -738.67198685 </i>
    <i name="e_wo_entrp">   -738.67176777 </i>
    <i name="e_0_energy">   -738.67187731 </i>
   </energy>
  </scstep>
  <scstep>
   <time name="dav">    0.89    0.89</time>
   <time name="total">    1.43    1.43</time>
   <energy>
    <i name="e_fr_energy">   -738.66881654 </i>
    <i name="e_wo_entrp">   -738.66850567 </i>
    <i name="e_0_energy">   -738.66866110 </i>
   </energy>
  </scstep>
  <scstep>
   <time name="dav">    0.90    0.90</time>
   <time name="total">    1.43    1.43</time>
   <energy>
    <i name="e_fr_energy">   -738.66941494 </i>
    <i name="e_wo_entrp">   -738.66908290 </i>
    <i name="e_0_energy">   -738.66924892 </i>
   </energy>
  </scstep>
  <scstep>
   <time name="dav">    0.97    0.97</time>
   <time name="total">    1.50    1.50</time>
   <energy>
    <i name="e_fr_energy">   -738.66850010 </i>
    <i name="e_wo_entrp">   -738.66818332 </i>
    <i name="e_0_energy">   -738.66834171 </i>
   </energy>
  </scstep>
  <scstep>
   <time name="dav">    0.79    0.79</time>
   <time name="total">    1.32    1.33</time>
   <energy>
    <i name="e_fr_energy">   -738.66574283 </i>
    <i name="e_wo_entrp">   -738.66543310 </i>
    <i name="e_0_energy">   -738.66558796 </i>
   </energy>
  </scstep>
  <scstep>
   <time name="dav">    0.90    0.90</time>
   <time name="total">    1.43    1.43</time>
   <energy>
    <i name="e_fr_energy">   -738.66394685 </i>
    <i name="e_wo_entrp">   -738.66364595 </i>
    <i name="e_0_energy">   -738.66379640 </i>
   </energy>
  </scstep>
  <scstep>
   <time name="dav">    0.87    0.87</time>
   <time name="total">    1.41    1.41</time>
   <energy>
    <i name="e_fr_energy">   -738.66369629 </i>
    <i name="e_wo_entrp">   -738.66339734 </i>
    <i name="e_0_energy">   -738.66354682 </i>
   </energy>
  </scstep>
  <scstep>
   <time name="dav">    0.95    0.95</time>
   <time name="total">    1.49    1.49</time>
   <energy>
    <i name="e_fr_energy">   -738.66369670 </i>
    <i name="e_wo_entrp">   -738.66339834 </i>
    <i name="e_0_energy">   -738.66354752 </i>
   </energy>
  </scstep>
  <scstep>
   <time name="dav">    0.92    0.92</time>
   <time name="total">    1.46    1.46</time>
   <energy>
    <i name="e_fr_energy">   -738.66366925 </i>
    <i name="e_wo_entrp">   -738.66337028 </i>
    <i name="e_0_energy">   -738.66351976 </i>
   </energy>
  </scstep>
  <scstep>
   <time name="dav">    0.79    0.79</time>
   <time name="total">    1.33    1.33</time>
   <energy>
    <i name="e_fr_energy">   -738.66357501 </i>
    <i name="e_wo_entrp">   -738.66327698 </i>
    <i name="e_0_energy">   -738.66342600 </i>
   </energy>
  </scstep>
  <scstep>
   <time name="dav">    0.88    0.88</time>
   <time name="total">    1.41    1.41</time>
   <energy>
    <i name="e_fr_energy">   -738.66351963 </i>
    <i name="e_wo_entrp">   -738.66322297 </i>
    <i name="e_0_energy">   -738.66337130 </i>
   </energy>
  </scstep>
  <scstep>
   <time name="dav">    0.87    0.87</time>
   <time name="total">    1.40    1.41</time>
   <energy>
    <i name="e_fr_energy">   -738.66349409 </i>
    <i name="e_wo_entrp">   -738.66319769 </i>
    <i name="e_0_energy">   -738.66334589 </i>
   </energy>
  </scstep>
  <scstep>
   <time name="dav">    0.90    0.90</time>
   <time name="total">    1.43    1.43</time>
   <energy>
    <i name="e_fr_energy">   -738.66349511 </i>
    <i name="e_wo_entrp">   -738.66319959 </i>
    <i name="e_0_energy">   -738.66334735 </i>
   </energy>
  </scstep>
  <scstep>
   <time name="dav">    0.99    0.99</time>
   <time name="total">    1.52    1.52</time>
   <energy>
    <i name="e_fr_energy">   -738.66349808 </i>
    <i name="e_wo_entrp">   -738.66320233 </i>
    <i name="e_0_energy">   -738.66335020 </i>
   </energy>
  </scstep>
  <scstep>
   <time name="dav">    0.85    0.85</time>
   <time name="total">    1.39    1.39</time>
   <energy>
    <i name="e_fr_energy">   -738.66350150 </i>
    <i name="e_wo_entrp">   -738.66320587 </i>
    <i name="e_0_energy">   -738.66335369 </i>
   </energy>
  </scstep>
  <scstep>
   <time name="dav">    0.87    0.87</time>
   <time name="total">    1.41    1.41</time>
   <energy>
    <i name="e_fr_energy">   -738.66350725 </i>
    <i name="e_wo_entrp">   -738.66321198 </i>
    <i name="e_0_energy">   -738.66335962 </i>
   </energy>
  </scstep>
  <scstep>
   <time name="dav">    0.90    0.90</time>
   <time name="total">    1.43    1.43</time>
   <energy>
    <i name="e_fr_energy">   -738.66351143 </i>
    <i name="e_wo_entrp">   -738.66321604 </i>
    <i name="e_0_energy">   -738.66336374 </i>
   </energy>
  </scstep>
  <scstep>
   <time name="dav">    0.96    0.97</time>
   <time name="total">    1.50    1.50</time>
   <energy>
    <i name="e_fr_energy">   -738.66351360 </i>
    <i name="e_wo_entrp">   -738.66321820 </i>
    <i name="e_0_energy">   -738.66336590 </i>
   </energy>
  </scstep>
  <scstep>
   <time name="dav">    0.88    0.88</time>
   <time name="total">    1.42    1.42</time>
   <energy>
    <i name="e_fr_energy">   -738.66351574 </i>
    <i name="e_wo_entrp">   -738.66322040 </i>
    <i name="e_0_energy">   -738.66336807 </i>
   </energy>
  </scstep>
  <scstep>
   <time name="dav">    0.77    0.77</time>
   <time name="total">    1.31    1.31</time>
   <energy>
    <i name="e_fr_energy">   -738.66351871 </i>
    <i name="e_wo_entrp">   -738.66322336 </i>
    <i name="e_0_energy">   -738.66337103 </i>
   </energy>
  </scstep>
  <scstep>
   <time name="dav">    0.77    0.77</time>
   <time name="total">    1.33    1.33</time>
   <energy>
    <i name="e_fr_energy">   -738.66352179 </i>
    <i name="e_wo_entrp">   -738.66322644 </i>
    <i name="e_0_energy">   -738.66337412 </i>
   </energy>
  </scstep>
  <scstep>
   <time name="dav">    0.65    0.65</time>
   <time name="total">    1.20    1.20</time>
   <energy>
    <i name="e_fr_energy">   -738.66352416 </i>
    <i name="e_wo_entrp">   -738.66322881 </i>
    <i name="e_0_energy">   -738.66337649 </i>
   </energy>
  </scstep>
  <scstep>
   <time name="dav">    0.57    0.57</time>
   <time name="total">    1.10    1.10</time>
   <energy>
    <i name="e_fr_energy">   -738.66352623 </i>
    <i name="e_wo_entrp">   -738.66323086 </i>
    <i name="e_0_energy">   -738.66337855 </i>
   </energy>
  </scstep>
  <scstep>
   <time name="dav">    0.62    0.62</time>
   <time name="total">    1.16    1.16</time>
   <energy>
    <i name="e_fr_energy">   -738.66352818 </i>
    <i name="e_wo_entrp">   -738.66323281 </i>
    <i name="e_0_energy">   -738.66338049 </i>
   </energy>
  </scstep>
  <scstep>
   <time name="dav">    0.59    0.59</time>
   <time name="total">    1.13    1.13</time>
   <energy>
    <i name="e_fr_energy">   -738.66352946 </i>
    <i name="e_wo_entrp">   -738.66323411 </i>
    <i name="e_0_energy">   -738.66338178 </i>
   </energy>
  </scstep>
  <scstep>
   <time name="dav">    0.55    0.55</time>
   <time name="total">    1.10    1.10</time>
   <energy>
    <i name="e_fr_energy">   -738.66352997 </i>
    <i name="e_wo_entrp">   -738.66323462 </i>
    <i name="e_0_energy">   -738.66338230 </i>
   </energy>
  </scstep>
  <scstep>
   <time name="dav">    0.52    0.52</time>
   <time name="total">    1.06    1.06</time>
   <energy>
    <i name="e_fr_energy">   -738.66353008 </i>
    <i name="e_wo_entrp">   -738.66323472 </i>
    <i name="e_0_energy">   -738.66338240 </i>
   </energy>
  </scstep>
  <scstep>
   <time name="dav">    0.50    0.50</time>
   <time name="total">    1.03    1.04</time>
   <energy>
    <i name="e_fr_energy">   -738.66353018 </i>
    <i name="e_wo_entrp">   -738.66323483 </i>
    <i name="e_0_energy">   -738.66338250 </i>
   </energy>
  </scstep>
  <scstep>
   <time name="dav">    0.48    0.48</time>
   <time name="total">    1.01    1.01</time>
   <energy>
    <i name="e_fr_energy">   -738.66353023 </i>
    <i name="e_wo_entrp">   -738.66323487 </i>
    <i name="e_0_energy">   -738.66338255 </i>
   </energy>
  </scstep>
  <scstep>
