unknown system                          
           1
    11.598200    0.000000    0.000000
    -5.799100   10.044336    0.000000
     0.000000    0.000000   21.048200
   Ce   O 
    27    63
Direct configuration=     1
   0.00000000  0.00000000  0.45993000
   0.22222000  0.11111000  0.30996000
   0.11111000  0.22222000  0.15999000
   0.33333000  0.00000000  0.45993000
   0.55556000  0.11111000  0.30996000
   0.44444000  0.22222000  0.15999000
   0.66667000  0.00000000  0.45993000
   0.88889000  0.11111000  0.30996000
   0.77778000  0.22222000  0.15999000
   0.00000000  0.33333000  0.45993000
   0.22222000  0.44444000  0.30996000
   0.11111000  0.55556000  0.15999000
   0.33333000  0.33333000  0.45993000
   0.55556000  0.44444000  0.30996000
   0.44444000  0.55556000  0.15999000
   0.66667000  0.33333000  0.45993000
   0.88889000  0.44444000  0.30996000
   0.77778000  0.55556000  0.15999000
   0.00000000  0.66667000  0.45993000
   0.22222000  0.77778000  0.30996000
   0.11111000  0.88889000  0.15999000
   0.33333000  0.66667000  0.45993000
   0.55556000  0.77778000  0.30996000
   0.44444000  0.88889000  0.15999000
   0.66667000  0.66667000  0.45993000
   0.88889000  0.77778000  0.30996000
   0.77778000  0.88889000  0.15999000
   0.00000000  0.00000000  0.12250000
   0.11111000  0.22222000  0.27247000
   0.22222000  0.11111000  0.42244000
   0.11111000  0.22222000  0.04751000
   0.11111000  0.22222000  0.49742000
   0.00000000  0.00000000  0.34745000
   0.22222000  0.11111000  0.19748000
   0.33333000  0.00000000  0.12250000
   0.44444000  0.22222000  0.27247000
   0.55556000  0.11111000  0.42244000
   0.44444000  0.22222000  0.04751000
   0.44444000  0.22222000  0.49742000
   0.33333000  0.00000000  0.34745000
   0.55556000  0.11111000  0.19748000
   0.66667000  0.00000000  0.12250000
   0.77778000  0.22222000  0.27247000
   0.88889000  0.11111000  0.42244000
   0.77778000  0.22222000  0.04751000
   0.77778000  0.22222000  0.49742000
   0.66667000  0.00000000  0.34745000
   0.88889000  0.11111000  0.19748000
   0.00000000  0.33333000  0.12250000
   0.11111000  0.55556000  0.27247000
   0.22222000  0.44444000  0.42244000
   0.11111000  0.55556000  0.04751000
   0.11111000  0.55556000  0.49742000
   0.00000000  0.33333000  0.34745000
   0.22222000  0.44444000  0.19748000
   0.33333000  0.33333000  0.12250000
   0.44444000  0.55556000  0.27247000
   0.55556000  0.44444000  0.42244000
   0.44444000  0.55556000  0.04751000
   0.44444000  0.55556000  0.49742000
   0.33333000  0.33333000  0.34745000
   0.55556000  0.44444000  0.19748000
   0.66667000  0.33333000  0.12250000
   0.77778000  0.55556000  0.27247000
   0.88889000  0.44444000  0.42244000
   0.77778000  0.55556000  0.04751000
   0.77778000  0.55556000  0.49742000
   0.66667000  0.33333000  0.34745000
   0.88889000  0.44444000  0.19748000
   0.00000000  0.66667000  0.12250000
   0.11111000  0.88889000  0.27247000
   0.22222000  0.77778000  0.42244000
   0.11111000  0.88889000  0.04751000
   0.11111000  0.88889000  0.49742000
   0.00000000  0.66667000  0.34745000
   0.22222000  0.77778000  0.19748000
   0.33333000  0.66667000  0.12250000
   0.44444000  0.88889000  0.27247000
   0.55556000  0.77778000  0.42244000
   0.44444000  0.88889000  0.04751000
   0.44444000  0.88889000  0.49742000
   0.33333000  0.66667000  0.34745000
   0.55556000  0.77778000  0.19748000
   0.66667000  0.66667000  0.12250000
   0.77778000  0.88889000  0.27247000
   0.88889000  0.77778000  0.42244000
   0.77778000  0.88889000  0.04751000
   0.77778000  0.88889000  0.49742000
   0.66667000  0.66667000  0.34745000
   0.88889000  0.77778000  0.19748000
Direct configuration=     2
   0.00000030  0.99999970  0.46046393
   0.22222127  0.11111015  0.31047184
   0.11111000  0.22222000  0.15999000
   0.33333172  0.00000016  0.46046367
   0.55555610  0.11110848  0.31047156
   0.44444000  0.22222000  0.15999000
   0.66666753  0.99999861  0.46046391
   0.88889026  0.11110974  0.31047149
   0.77778000  0.22222000  0.15999000
   0.00000139  0.33333247  0.46046391
   0.22222246  0.44444435  0.31047194
   0.11111000  0.55556000  0.15999000
   0.33333280  0.33333291  0.46046365
   0.55555732  0.44444268  0.31047161
   0.44444000  0.55556000  0.15999000
   0.66666861  0.33333139  0.46046390
   0.88889152  0.44444390  0.31047156
   0.77778000  0.55556000  0.15999000
   0.99999984  0.66666828  0.46046367
   0.22222082  0.77777918  0.31047223
   0.11111000  0.88889000  0.15999000
   0.33333125  0.66666875  0.46046341
   0.55555565  0.77777754  0.31047194
   0.44444000  0.88889000  0.15999000
   0.66666709  0.66666720  0.46046365
   0.88888985  0.77777873  0.31047184
   0.77778000  0.88889000  0.15999000
   0.00000000  0.00000000  0.12250000
   0.11110996  0.22222038  0.27237990
   0.22222001  0.11111038  0.42200072
   0.11111000  0.22222000  0.04751000
   0.11111011  0.22222029  0.49736290
   0.99999987  0.00000013  0.34783418
   0.22222000  0.11111000  0.19748000
   0.33333000  0.00000000  0.12250000
   0.44444264  0.22222059  0.27237992
   0.55555933  0.11111068  0.42200050
   0.44444000  0.22222000  0.04751000
   0.44444100  0.22221993  0.49736241
   0.33333209  0.00000116  0.34783433
   0.55556000  0.11111000  0.19748000
   0.66667000  0.00000000  0.12250000
   0.77777974  0.22222026  0.27238019
   0.88888974  0.11111026  0.42200064
   0.77778000  0.22222000  0.04751000
   0.77777984  0.22222016  0.49736295
   0.66666920  0.99999989  0.34783381
   0.88889000  0.11111000  0.19748000
   0.00000000  0.33333000  0.12250000
   0.11110963  0.55555748  0.27237964
   0.22221958  0.44444079  0.42200058
   0.11111000  0.55556000  0.04751000
   0.11111034  0.55555914  0.49736237
   0.00000011  0.33333080  0.34783381
   0.22222000  0.44444000  0.19748000
   0.33333000  0.33333000  0.12250000
   0.44444230  0.55555770  0.27237966
   0.55555891  0.44444109  0.42200035
   0.44444000  0.55556000  0.04751000
   0.44444123  0.55555877  0.49736187
   0.33333233  0.33333182  0.34783396
   0.55556000  0.44444000  0.19748000
   0.66667000  0.33333000  0.12250000
   0.77777941  0.55555736  0.27237992
   0.88888932  0.44444067  0.42200050
   0.77778000  0.55556000  0.04751000
   0.77778007  0.55555900  0.49736241
   0.66666944  0.33333056  0.34783344
   0.88889000  0.44444000  0.19748000
   0.00000000  0.66667000  0.12250000
   0.11110985  0.88889015  0.27237961
   0.22221988  0.77778012  0.42200080
   0.11111000  0.88889000  0.04751000
   0.11110997  0.88889003  0.49736286
   0.99999884  0.66666791  0.34783433
   0.22222000  0.77778000  0.19748000
   0.33333000  0.66667000  0.12250000
   0.44444252  0.88889037  0.27237964
   0.55555921  0.77778042  0.42200058
   0.44444000  0.88889000  0.04751000
   0.44444086  0.88888966  0.49736237
   0.33333107  0.66666893  0.34783448
   0.55556000  0.77778000  0.19748000
   0.66667000  0.66667000  0.12250000
   0.77777962  0.88889004  0.27237990
   0.88888962  0.77777999  0.42200072
   0.77778000  0.88889000  0.04751000
   0.77777971  0.88888989  0.49736290
   0.66666818  0.66666767  0.34783396
   0.88889000  0.77778000  0.19748000
Direct configuration=     3
   0.00000031  0.99999969  0.46048155
   0.22222131  0.11111016  0.31048873
   0.11111000  0.22222000  0.15999000
   0.33333177  0.00000016  0.46048128
   0.55555597  0.11110843  0.31048844
   0.44444000  0.22222000  0.15999000
   0.66666745  0.99999857  0.46048153
   0.88889027  0.11110973  0.31048837
   0.77778000  0.22222000  0.15999000
   0.00000143  0.33333255  0.46048153
   0.22222254  0.44444449  0.31048883
   0.11111000  0.55556000  0.15999000
   0.33333289  0.33333300  0.46048126
   0.55555723  0.44444277  0.31048849
   0.44444000  0.55556000  0.15999000
   0.66666856  0.33333144  0.46048152
   0.88889157  0.44444403  0.31048844
   0.77778000  0.55556000  0.15999000
   0.99999984  0.66666823  0.46048128
   0.22222084  0.77777916  0.31048913
   0.11111000  0.88889000  0.15999000
   0.33333129  0.66666871  0.46048101
   0.55555551  0.77777746  0.31048883
   0.44444000  0.88889000  0.15999000
   0.66666700  0.66666711  0.46048126
   0.88888984  0.77777869  0.31048873
   0.77778000  0.88889000  0.15999000
   0.00000000  0.00000000  0.12250000
   0.11110996  0.22222039  0.27237693
   0.22222001  0.11111039  0.42198623
   0.11111000  0.22222000  0.04751000
   0.11111011  0.22222030  0.49736102
   0.99999987  0.00000013  0.34784686
   0.22222000  0.11111000  0.19748000
   0.33333000  0.00000000  0.12250000
   0.44444273  0.22222061  0.27237695
   0.55555931  0.11111070  0.42198600
   0.44444000  0.22222000  0.04751000
   0.44444104  0.22221992  0.49736051
   0.33333216  0.00000119  0.34784701
   0.55556000  0.11111000  0.19748000
   0.66667000  0.00000000  0.12250000
   0.77777973  0.22222027  0.27237723
   0.88888973  0.11111027  0.42198615
   0.77778000  0.22222000  0.04751000
   0.77777984  0.22222016  0.49736106
   0.66666917  0.99999989  0.34784647
   0.88889000  0.11111000  0.19748000
   0.00000000  0.33333000  0.12250000
   0.11110962  0.55555739  0.27237666
   0.22221957  0.44444082  0.42198608
   0.11111000  0.55556000  0.04751000
   0.11111035  0.55555911  0.49736047
   0.00000011  0.33333083  0.34784647
   0.22222000  0.44444000  0.19748000
   0.33333000  0.33333000  0.12250000
   0.44444238  0.55555762  0.27237668
   0.55555887  0.44444113  0.42198584
   0.44444000  0.55556000  0.04751000
   0.44444127  0.55555873  0.49735995
   0.33333241  0.33333188  0.34784663
   0.55556000  0.44444000  0.19748000
   0.66667000  0.33333000  0.12250000
   0.77777939  0.55555727  0.27237695
   0.88888930  0.44444069  0.42198600
   0.77778000  0.55556000  0.04751000
   0.77778008  0.55555896  0.49736051
   0.66666943  0.33333057  0.34784609
   0.88889000  0.44444000  0.19748000
   0.00000000  0.66667000  0.12250000
   0.11110985  0.88889015  0.27237663
   0.22221988  0.77778012  0.42198631
   0.11111000  0.88889000  0.04751000
   0.11110997  0.88889003  0.49736098
   0.99999881  0.66666784  0.34784701
   0.22222000  0.77778000  0.19748000
   0.33333000  0.66667000  0.12250000
   0.44444261  0.88889038  0.27237666
   0.55555918  0.77778043  0.42198608
   0.44444000  0.88889000  0.04751000
   0.44444089  0.88888965  0.49736047
   0.33333110  0.66666890  0.34784716
   0.55556000  0.77778000  0.19748000
   0.66667000  0.66667000  0.12250000
   0.77777961  0.88889004  0.27237693
   0.88888961  0.77777999  0.42198623
   0.77778000  0.88889000  0.04751000
   0.77777970  0.88888989  0.49736102
   0.66666812  0.66666759  0.34784663
   0.88889000  0.77778000  0.19748000
Direct configuration=     4
   0.00000010  0.99999990  0.46063468
   0.22222184  0.11111093  0.31055932
   0.11111000  0.22222000  0.15999000
   0.33333311  0.00000085  0.46063436
   0.55555568  0.11110964  0.31055878
   0.44444000  0.22222000  0.15999000
   0.66666723  0.99999915  0.46063437
   0.88888988  0.11111012  0.31055899
   0.77778000  0.22222000  0.15999000
   0.00000085  0.33333277  0.46063437
   0.22222230  0.44444513  0.31055915
   0.11111000  0.55556000  0.15999000
   0.33333387  0.33333371  0.46063404
   0.55555613  0.44444387  0.31055857
   0.44444000  0.55556000  0.15999000
   0.66666797  0.33333203  0.46063402
   0.88889036  0.44444432  0.31055878
   0.77778000  0.55556000  0.15999000
   0.99999915  0.66666689  0.46063436
   0.22222103  0.77777897  0.31055970
   0.11111000  0.88889000  0.15999000
   0.33333216  0.66666784  0.46063408
   0.55555487  0.77777770  0.31055915
   0.44444000  0.88889000  0.15999000
   0.66666629  0.66666613  0.46063404
   0.88888907  0.77777816  0.31055932
   0.77778000  0.88889000  0.15999000
   0.00000000  0.00000000  0.12250000
   0.11111092  0.22222138  0.27252177
   0.22222084  0.11111121  0.42194174
   0.11111000  0.22222000  0.04751000
   0.11111113  0.22222153  0.49743418
   0.00000018  0.99999982  0.34856544
   0.22222000  0.11111000  0.19748000
   0.33333000  0.00000000  0.12250000
   0.44444442  0.22222088  0.27252158
   0.55555802  0.11111115  0.42194162
   0.44444000  0.22222000  0.04751000
   0.44444241  0.22222043  0.49743323
   0.33333351  0.00000120  0.34856575
   0.55556000  0.11111000  0.19748000
   0.66667000  0.00000000  0.12250000
   0.77777936  0.22222064  0.27252207
   0.88888942  0.11111058  0.42194182
   0.77778000  0.22222000  0.04751000
   0.77777934  0.22222066  0.49743427
   0.66666725  0.99999872  0.34856491
   0.88889000  0.11111000  0.19748000
   0.00000000  0.33333000  0.12250000
   0.11111068  0.55555632  0.27252128
   0.22222024  0.44444261  0.42194154
   0.11111000  0.55556000  0.04751000
   0.11111136  0.55555846  0.49743314
   0.00000128  0.33333275  0.34856491
   0.22222000  0.44444000  0.19748000
   0.33333000  0.33333000  0.12250000
   0.44444416  0.55555584  0.27252110
   0.55555745  0.44444255  0.42194141
   0.44444000  0.55556000  0.04751000
   0.44444264  0.55555736  0.49743218
   0.33333462  0.33333412  0.34856521
   0.55556000  0.44444000  0.19748000
   0.66667000  0.33333000  0.12250000
   0.77777912  0.55555558  0.27252158
   0.88888885  0.44444198  0.42194162
   0.77778000  0.55556000  0.04751000
   0.77777957  0.55555759  0.49743323
   0.66666836  0.33333164  0.34856436
   0.88889000  0.44444000  0.19748000
   0.00000000  0.66667000  0.12250000
   0.11111020  0.88888980  0.27252146
   0.22222019  0.77777981  0.42194166
   0.11111000  0.88889000  0.04751000
   0.11111026  0.88888974  0.49743410
   0.99999880  0.66666649  0.34856575
   0.22222000  0.77778000  0.19748000
   0.33333000  0.66667000  0.12250000
   0.44444368  0.88888932  0.27252128
   0.55555739  0.77777976  0.42194154
   0.44444000  0.88889000  0.04751000
   0.44444154  0.88888864  0.49743314
   0.33333213  0.66666787  0.34856606
   0.55556000  0.77778000  0.19748000
   0.66667000  0.66667000  0.12250000
   0.77777862  0.88888908  0.27252177
   0.88888879  0.77777916  0.42194174
   0.77778000  0.88889000  0.04751000
   0.77777847  0.88888887  0.49743418
   0.66666588  0.66666538  0.34856521
   0.88889000  0.77778000  0.19748000
Direct configuration=     5
   0.99999995  0.00000005  0.46074831
   0.22222223  0.11111150  0.31061170
   0.11111000  0.22222000  0.15999000
   0.33333410  0.00000136  0.46074797
   0.55555546  0.11111054  0.31061098
   0.44444000  0.22222000  0.15999000
   0.66666707  0.99999958  0.46074779
   0.88888958  0.11111042  0.31061139
   0.77778000  0.22222000  0.15999000
   0.00000042  0.33333293  0.46074779
   0.22222212  0.44444560  0.31061134
   0.11111000  0.55556000  0.15999000
   0.33333459  0.33333423  0.46074742
   0.55555531  0.44444469  0.31061058
   0.44444000  0.55556000  0.15999000
   0.66666753  0.33333247  0.46074719
   0.88888946  0.44444454  0.31061098
   0.77778000  0.55556000  0.15999000
   0.99999864  0.66666590  0.46074797
   0.22222116  0.77777884  0.31061207
   0.11111000  0.88889000  0.15999000
   0.33333280  0.66666720  0.46074767
   0.55555440  0.77777788  0.31061134
   0.44444000  0.88889000  0.15999000
   0.66666577  0.66666541  0.46074742
   0.88888850  0.77777777  0.31061170
   0.77778000  0.88889000  0.15999000
   0.00000000  0.00000000  0.12250000
   0.11111164  0.22222211  0.27262925
   0.22222145  0.11111182  0.42190873
   0.11111000  0.22222000  0.04751000
   0.11111188  0.22222244  0.49748848
   0.00000041  0.99999959  0.34909869
   0.22222000  0.11111000  0.19748000
   0.33333000  0.00000000  0.12250000
   0.44444567  0.22222109  0.27262890
   0.55555706  0.11111148  0.42190869
   0.44444000  0.22222000  0.04751000
   0.44444343  0.22222081  0.49748719
   0.33333452  0.00000121  0.34909912
   0.55556000  0.11111000  0.19748000
   0.66667000  0.00000000  0.12250000
   0.77777909  0.22222091  0.27262955
   0.88888918  0.11111082  0.42190893
   0.77778000  0.22222000  0.04751000
   0.77777897  0.22222103  0.49748860
   0.66666583  0.99999785  0.34909805
   0.88889000  0.11111000  0.19748000
   0.00000000  0.33333000  0.12250000
   0.11111146  0.55555552  0.27262861
   0.22222074  0.44444394  0.42190848
   0.11111000  0.55556000  0.04751000
   0.11111211  0.55555798  0.49748707
   0.00000215  0.33333417  0.34909805
   0.22222000  0.44444000  0.19748000
   0.33333000  0.33333000  0.12250000
   0.44444547  0.55555453  0.27262827
   0.55555639  0.44444361  0.42190844
   0.44444000  0.55556000  0.04751000
   0.44444365  0.55555635  0.49748578
   0.33333625  0.33333578  0.34909847
   0.55556000  0.44444000  0.19748000
   0.66667000  0.33333000  0.12250000
   0.77777891  0.55555433  0.27262890
   0.88888852  0.44444294  0.42190869
   0.77778000  0.55556000  0.04751000
   0.77777919  0.55555657  0.49748719
   0.66666758  0.33333242  0.34909739
   0.88889000  0.44444000  0.19748000
   0.00000000  0.66667000  0.12250000
   0.11111046  0.88888954  0.27262894
   0.22222042  0.77777958  0.42190853
   0.11111000  0.88889000  0.04751000
   0.11111047  0.88888953  0.49748837
   0.99999879  0.66666548  0.34909912
   0.22222000  0.77778000  0.19748000
   0.33333000  0.66667000  0.12250000
   0.44444448  0.88888854  0.27262861
   0.55555606  0.77777926  0.42190848
   0.44444000  0.88889000  0.04751000
   0.44444202  0.88888789  0.49748707
   0.33333289  0.66666711  0.34909955
   0.55556000  0.77778000  0.19748000
   0.66667000  0.66667000  0.12250000
   0.77777789  0.88888836  0.27262925
   0.88888818  0.77777855  0.42190873
   0.77778000  0.88889000  0.04751000
   0.77777756  0.88888812  0.49748848
   0.66666422  0.66666375  0.34909847
   0.88889000  0.77778000  0.19748000
Direct configuration=     6
   0.00000001  0.99999999  0.46079229
   0.22222258  0.11111219  0.31099815
   0.11111000  0.22222000  0.15999000
   0.33333374  0.00000084  0.46079187
   0.55555696  0.11111209  0.31099716
   0.44444000  0.22222000  0.15999000
   0.66666697  0.99999975  0.46079139
   0.88888907  0.11111093  0.31099781
   0.77778000  0.22222000  0.15999000
   0.00000025  0.33333303  0.46079139
   0.22222144  0.44444431  0.31099753
   0.11111000  0.55556000  0.15999000
   0.33333401  0.33333387  0.46079096
   0.55555579  0.44444421  0.31099652
   0.44444000  0.55556000  0.15999000
   0.66666722  0.33333278  0.46079042
   0.88888791  0.44444304  0.31099716
   0.77778000  0.55556000  0.15999000
   0.99999916  0.66666626  0.46079187
   0.22222135  0.77777865  0.31099852
   0.11111000  0.88889000  0.15999000
   0.33333290  0.66666710  0.46079146
   0.55555569  0.77777856  0.31099753
   0.44444000  0.88889000  0.15999000
   0.66666613  0.66666599  0.46079096
   0.88888781  0.77777742  0.31099815
   0.77778000  0.88889000  0.15999000
   0.00000000  0.00000000  0.12250000
   0.11111224  0.22222239  0.27285013
   0.22222228  0.11111247  0.42213339
   0.11111000  0.22222000  0.04751000
   0.11111242  0.22222341  0.49767614
   0.00000054  0.99999946  0.34941341
   0.22222000  0.11111000  0.19748000
   0.33333000  0.00000000  0.12250000
   0.44444491  0.22222043  0.27284914
   0.55555658  0.11111187  0.42213368
   0.44444000  0.22222000  0.04751000
   0.44444479  0.22222168  0.49767490
   0.33333464  0.00000074  0.34941365
   0.55556000  0.11111000  0.19748000
   0.66667000  0.00000000  0.12250000
   0.77777897  0.22222103  0.27285027
   0.88888891  0.11111109  0.42213373
   0.77778000  0.22222000  0.04751000
   0.77777842  0.22222158  0.49767626
   0.66666512  0.99999779  0.34941294
   0.88889000  0.11111000  0.19748000
   0.00000000  0.33333000  0.12250000
   0.11111286  0.55555645  0.27284901
   0.22222148  0.44444478  0.42213335
   0.11111000  0.55556000  0.04751000
   0.11111234  0.55555705  0.49767479
   0.00000221  0.33333488  0.34941294
   0.22222000  0.44444000  0.19748000
   0.33333000  0.33333000  0.12250000
   0.44444551  0.55555449  0.27284803
   0.55555580  0.44444420  0.42213362
   0.44444000  0.55556000  0.04751000
   0.44444469  0.55555531  0.49767353
   0.33333632  0.33333615  0.34941318
   0.55556000  0.44444000  0.19748000
   0.66667000  0.33333000  0.12250000
   0.77777957  0.55555509  0.27284914
   0.88888813  0.44444342  0.42213368
   0.77778000  0.55556000  0.04751000
   0.77777832  0.55555521  0.49767490
   0.66666679  0.33333321  0.34941246
   0.88889000  0.44444000  0.19748000
   0.00000000  0.66667000  0.12250000
   0.11111089  0.88888911  0.27284999
   0.22222089  0.77777911  0.42213307
   0.11111000  0.88889000  0.04751000
   0.11111059  0.88888941  0.49767603
   0.99999926  0.66666536  0.34941365
   0.22222000  0.77778000  0.19748000
   0.33333000  0.66667000  0.12250000
   0.44444355  0.88888714  0.27284901
   0.55555522  0.77777852  0.42213335
   0.44444000  0.88889000  0.04751000
   0.44444295  0.88888766  0.49767479
   0.33333337  0.66666663  0.34941391
   0.55556000  0.77778000  0.19748000
   0.66667000  0.66667000  0.12250000
   0.77777761  0.88888776  0.27285013
   0.88888753  0.77777772  0.42213339
   0.77778000  0.88889000  0.04751000
   0.77777659  0.88888758  0.49767614
   0.66666385  0.66666368  0.34941318
   0.88889000  0.77778000  0.19748000
Direct configuration=     7
   0.00000006  0.99999994  0.46083180
   0.22222290  0.11111281  0.31134537
   0.11111000  0.22222000  0.15999000
   0.33333341  0.00000037  0.46083131
   0.55555831  0.11111347  0.31134414
   0.44444000  0.22222000  0.15999000
   0.66666688  0.99999991  0.46083058
   0.88888860  0.11111140  0.31134502
   0.77778000  0.22222000  0.15999000
   0.00000009  0.33333312  0.46083058
   0.22222082  0.44444316  0.31134452
   0.11111000  0.55556000  0.15999000
   0.33333349  0.33333355  0.46083007
   0.55555622  0.44444378  0.31134329
   0.44444000  0.55556000  0.15999000
   0.66666695  0.33333305  0.46082927
   0.88888653  0.44444169  0.31134414
   0.77778000  0.55556000  0.15999000
   0.99999963  0.66666659  0.46083131
   0.22222151  0.77777849  0.31134576
   0.11111000  0.88889000  0.15999000
   0.33333299  0.66666701  0.46083081
   0.55555684  0.77777918  0.31134452
   0.44444000  0.88889000  0.15999000
   0.66666645  0.66666651  0.46083007
   0.88888719  0.77777710  0.31134537
   0.77778000  0.88889000  0.15999000
   0.00000000  0.00000000  0.12250000
   0.11111279  0.22222265  0.27304860
   0.22222302  0.11111304  0.42233525
   0.11111000  0.22222000  0.04751000
   0.11111291  0.22222428  0.49784476
   0.00000065  0.99999935  0.34969618
   0.22222000  0.11111000  0.19748000
   0.33333000  0.00000000  0.12250000
   0.44444422  0.22221983  0.27304703
   0.55555615  0.11111222  0.42233583
   0.44444000  0.22222000  0.04751000
   0.44444601  0.22222247  0.49784356
   0.33333475  0.00000031  0.34969626
   0.55556000  0.11111000  0.19748000
   0.66667000  0.00000000  0.12250000
   0.77777886  0.22222114  0.27304859
   0.88888866  0.11111134  0.42233571
   0.77778000  0.22222000  0.04751000
   0.77777793  0.22222207  0.49784488
   0.66666447  0.99999773  0.34969589
   0.88889000  0.11111000  0.19748000
   0.00000000  0.33333000  0.12250000
   0.11111411  0.55555729  0.27304705
   0.22222213  0.44444553  0.42233540
   0.11111000  0.55556000  0.04751000
   0.11111254  0.55555621  0.49784345
   0.00000227  0.33333553  0.34969589
   0.22222000  0.44444000  0.19748000
   0.33333000  0.33333000  0.12250000
   0.44444555  0.55555445  0.27304549
   0.55555527  0.44444473  0.42233596
   0.44444000  0.55556000  0.04751000
   0.44444563  0.55555437  0.49784223
   0.33333639  0.33333648  0.34969595
   0.55556000  0.44444000  0.19748000
   0.66667000  0.33333000  0.12250000
   0.77778017  0.55555578  0.27304703
   0.88888778  0.44444385  0.42233583
   0.77778000  0.55556000  0.04751000
   0.77777753  0.55555399  0.49784356
   0.66666608  0.33333392  0.34969556
   0.88889000  0.44444000  0.19748000
   0.00000000  0.66667000  0.12250000
   0.11111127  0.88888873  0.27304861
   0.22222132  0.77777868  0.42233482
   0.11111000  0.88889000  0.04751000
   0.11111069  0.88888931  0.49784466
   0.99999969  0.66666525  0.34969626
   0.22222000  0.77778000  0.19748000
   0.33333000  0.66667000  0.12250000
   0.44444271  0.88888589  0.27304705
   0.55555447  0.77777787  0.42233540
   0.44444000  0.88889000  0.04751000
   0.44444379  0.88888746  0.49784345
   0.33333381  0.66666619  0.34969636
   0.55556000  0.77778000  0.19748000
   0.66667000  0.66667000  0.12250000
   0.77777735  0.88888721  0.27304860
   0.88888696  0.77777698  0.42233525
   0.77778000  0.88889000  0.04751000
   0.77777572  0.88888709  0.49784476
   0.66666352  0.66666361  0.34969595
   0.88889000  0.77778000  0.19748000
Direct configuration=     8
   0.00000002  0.99999998  0.46106730
   0.22222284  0.11111228  0.31149890
   0.11111000  0.22222000  0.15999000
   0.33333366  0.00000037  0.46106676
   0.55555767  0.11111271  0.31149769
   0.44444000  0.22222000  0.15999000
   0.66666642  0.99999988  0.46106630
   0.88888878  0.11111122  0.31149866
   0.77778000  0.22222000  0.15999000
   0.00000012  0.33333358  0.46106630
   0.22222135  0.44444342  0.31149793
   0.11111000  0.55556000  0.15999000
   0.33333380  0.33333398  0.46106574
   0.55555618  0.44444382  0.31149673
   0.44444000  0.55556000  0.15999000
   0.66666655  0.33333345  0.46106525
   0.88888729  0.44444233  0.31149769
   0.77778000  0.55556000  0.15999000
   0.99999963  0.66666634  0.46106676
   0.22222180  0.77777820  0.31149913
   0.11111000  0.88889000  0.15999000
   0.33333328  0.66666672  0.46106619
   0.55555658  0.77777865  0.31149793
   0.44444000  0.88889000  0.15999000
   0.66666602  0.66666620  0.46106574
   0.88888772  0.77777716  0.31149890
   0.77778000  0.88889000  0.15999000
   0.00000000  0.00000000  0.12250000
   0.11111257  0.22222242  0.27330897
   0.22222318  0.11111296  0.42255060
   0.11111000  0.22222000  0.04751000
   0.11111268  0.22222429  0.49798291
   0.00000047  0.99999953  0.34983004
   0.22222000  0.11111000  0.19748000
   0.33333000  0.00000000  0.12250000
   0.44444357  0.22221946  0.27330696
   0.55555600  0.11111221  0.42255103
   0.44444000  0.22222000  0.04751000
   0.44444638  0.22222261  0.49798188
   0.33333496  0.00000039  0.34982986
   0.55556000  0.11111000  0.19748000
   0.66667000  0.00000000  0.12250000
   0.77777880  0.22222120  0.27330892
   0.88888862  0.11111138  0.42255092
   0.77778000  0.22222000  0.04751000
   0.77777775  0.22222225  0.49798296
   0.66666469  0.99999845  0.34982962
   0.88889000  0.11111000  0.19748000
   0.00000000  0.33333000  0.12250000
   0.11111432  0.55555765  0.27330701
   0.22222235  0.44444557  0.42255074
   0.11111000  0.55556000  0.04751000
   0.11111236  0.55555565  0.49798185
   0.00000155  0.33333531  0.34982962
   0.22222000  0.44444000  0.19748000
   0.33333000  0.33333000  0.12250000
   0.44444533  0.55555467  0.27330502
   0.55555517  0.44444483  0.42255115
   0.44444000  0.55556000  0.04751000
   0.44444605  0.55555395  0.49798081
   0.33333606  0.33333616  0.34982944
   0.55556000  0.44444000  0.19748000
   0.66667000  0.33333000  0.12250000
   0.77778054  0.55555643  0.27330696
   0.88888779  0.44444400  0.42255103
   0.77778000  0.55556000  0.04751000
   0.77777739  0.55555362  0.49798188
   0.66666577  0.33333423  0.34982918
   0.88889000  0.44444000  0.19748000
   0.00000000  0.66667000  0.12250000
   0.11111134  0.88888866  0.27330901
   0.22222160  0.77777840  0.42255031
   0.11111000  0.88889000  0.04751000
   0.11111064  0.88888936  0.49798287
   0.99999961  0.66666504  0.34982986
   0.22222000  0.77778000  0.19748000
   0.33333000  0.66667000  0.12250000
   0.44444235  0.88888568  0.27330701
   0.55555443  0.77777765  0.42255074
   0.44444000  0.88889000  0.04751000
   0.44444435  0.88888764  0.49798185
   0.33333412  0.66666588  0.34982972
   0.55556000  0.77778000  0.19748000
   0.66667000  0.66667000  0.12250000
   0.77777758  0.88888743  0.27330897
   0.88888704  0.77777682  0.42255060
   0.77778000  0.88889000  0.04751000
   0.77777571  0.88888732  0.49798291
   0.66666384  0.66666394  0.34982944
   0.88889000  0.77778000  0.19748000
Direct configuration=     9
   0.99999993  0.00000007  0.46177378
   0.22222265  0.11111069  0.31195947
   0.11111000  0.22222000  0.15999000
   0.33333442  0.00000038  0.46177308
   0.55555575  0.11111043  0.31195834
   0.44444000  0.22222000  0.15999000
   0.66666507  0.99999980  0.46177347
   0.88888931  0.11111069  0.31195959
   0.77778000  0.22222000  0.15999000
   0.00000020  0.33333493  0.46177347
   0.22222293  0.44444419  0.31195817
   0.11111000  0.55556000  0.15999000
   0.33333472  0.33333528  0.46177276
   0.55555608  0.44444392  0.31195704
   0.44444000  0.55556000  0.15999000
   0.66666535  0.33333465  0.46177317
   0.88888957  0.44444425  0.31195834
   0.77778000  0.55556000  0.15999000
   0.99999962  0.66666558  0.46177308
   0.22222269  0.77777731  0.31195925
   0.11111000  0.88889000  0.15999000
   0.33333416  0.66666584  0.46177233
   0.55555581  0.77777707  0.31195817
   0.44444000  0.88889000  0.15999000
   0.66666472  0.66666528  0.46177276
   0.88888931  0.77777735  0.31195947
   0.77778000  0.88889000  0.15999000
   0.00000000  0.00000000  0.12250000
   0.11111189  0.22222172  0.27409006
   0.22222364  0.11111272  0.42319664
   0.11111000  0.22222000  0.04751000
   0.11111201  0.22222430  0.49839736
   0.99999991  0.00000009  0.35023159
   0.22222000  0.11111000  0.19748000
   0.33333000  0.00000000  0.12250000
   0.44444162  0.22221833  0.27408675
   0.55555552  0.11111218  0.42319662
   0.44444000  0.22222000  0.04751000
   0.44444750  0.22222304  0.49839686
   0.33333559  0.00000063  0.35023068
   0.55556000  0.11111000  0.19748000
   0.66667000  0.00000000  0.12250000
   0.77777862  0.22222138  0.27408990
   0.88888848  0.11111152  0.42319654
   0.77778000  0.22222000  0.04751000
   0.77777719  0.22222281  0.49839721
   0.66666536  0.00000060  0.35023083
   0.88889000  0.11111000  0.19748000
   0.00000000  0.33333000  0.12250000
   0.11111496  0.55555872  0.27408691
   0.22222300  0.44444567  0.42319677
   0.11111000  0.55556000  0.04751000
   0.11111181  0.55555400  0.49839704
   0.99999940  0.33333464  0.35023083
   0.22222000  0.44444000  0.19748000
   0.33333000  0.33333000  0.12250000
   0.44444468  0.55555532  0.27408360