unknown system                          
           1
    11.598200    0.000000    0.000000
    -5.799100   10.044336    0.000000
     0.000000    0.000000   21.048200
   Ce   O 
    27    63
Direct configuration=     1
   0.00000000  0.00000000  0.45993000
   0.22222000  0.11111000  0.30996000
   0.11111000  0.22222000  0.15999000
   0.33333000  0.00000000  0.45993000
   0.55556000  0.11111000  0.30996000
   0.44444000  0.22222000  0.15999000
   0.66667000  0.00000000  0.45993000
   0.88889000  0.11111000  0.30996000
   0.77778000  0.22222000  0.15999000
   0.00000000  0.33333000  0.45993000
   0.22222000  0.44444000  0.30996000
   0.11111000  0.55556000  0.15999000
   0.33333000  0.33333000  0.45993000
   0.55556000  0.44444000  0.30996000
   0.44444000  0.55556000  0.15999000
   0.66667000  0.33333000  0.45993000
   0.88889000  0.44444000  0.30996000
   0.77778000  0.55556000  0.15999000
   0.00000000  0.66667000  0.45993000
   0.22222000  0.77778000  0.30996000
   0.11111000  0.88889000  0.15999000
   0.33333000  0.66667000  0.45993000
   0.55556000  0.77778000  0.30996000
   0.44444000  0.88889000  0.15999000
   0.66667000  0.66667000  0.45993000
   0.88889000  0.77778000  0.30996000
   0.77778000  0.88889000  0.15999000
   0.00000000  0.00000000  0.12250000
   0.11111000  0.22222000  0.27247000
   0.22222000  0.11111000  0.42244000
   0.11111000  0.22222000  0.04751000
   0.11111000  0.22222000  0.49742000
   0.00000000  0.00000000  0.34745000
   0.22222000  0.11111000  0.19748000
   0.33333000  0.00000000  0.12250000
   0.44444000  0.22222000  0.27247000
   0.55556000  0.11111000  0.42244000
   0.44444000  0.22222000  0.04751000
   0.44444000  0.22222000  0.49742000
   0.33333000  0.00000000  0.34745000
   0.55556000  0.11111000  0.19748000
   0.66667000  0.00000000  0.12250000
   0.77778000  0.22222000  0.27247000
   0.88889000  0.11111000  0.42244000
   0.77778000  0.22222000  0.04751000
   0.77778000  0.22222000  0.49742000
   0.66667000  0.00000000  0.34745000
   0.88889000  0.11111000  0.19748000
   0.00000000  0.33333000  0.12250000
   0.11111000  0.55556000  0.27247000
   0.22222000  0.44444000  0.42244000
   0.11111000  0.55556000  0.04751000
   0.11111000  0.55556000  0.49742000
   0.00000000  0.33333000  0.34745000
   0.22222000  0.44444000  0.19748000
   0.33333000  0.33333000  0.12250000
   0.44444000  0.55556000  0.27247000
   0.55556000  0.44444000  0.42244000
   0.44444000  0.55556000  0.04751000
   0.44444000  0.55556000  0.49742000
   0.33333000  0.33333000  0.34745000
   0.55556000  0.44444000  0.19748000
   0.66667000  0.33333000  0.12250000
   0.77778000  0.55556000  0.27247000
   0.88889000  0.44444000  0.42244000
   0.77778000  0.55556000  0.04751000
   0.77778000  0.55556000  0.49742000
   0.66667000  0.33333000  0.34745000
   0.88889000  0.44444000  0.19748000
   0.00000000  0.66667000  0.12250000
   0.11111000  0.88889000  0.27247000
   0.22222000  0.77778000  0.42244000
   0.11111000  0.88889000  0.04751000
   0.11111000  0.88889000  0.49742000
   0.00000000  0.66667000  0.34745000
   0.22222000  0.77778000  0.19748000
   0.33333000  0.66667000  0.12250000
   0.44444000  0.88889000  0.27247000
   0.55556000  0.77778000  0.42244000
   0.44444000  0.88889000  0.04751000
   0.44444000  0.88889000  0.49742000
   0.33333000  0.66667000  0.34745000
   0.55556000  0.77778000  0.19748000
   0.66667000  0.66667000  0.12250000
   0.77778000  0.88889000  0.27247000
   0.88889000  0.77778000  0.42244000
   0.77778000  0.88889000  0.04751000
   0.77778000  0.88889000  0.49742000
   0.66667000  0.66667000  0.34745000
   0.88889000  0.77778000  0.19748000
Direct configuration=     2
   0.00010771  0.99989229  0.45975024
   0.22197319  0.11088182  0.30986234
   0.11058245  0.22374196  0.16006232
   0.33308268  0.99964562  0.45975063
   0.55542341  0.11100334  0.30986951
   0.44470756  0.22150756  0.16121346
   0.66649102  0.99977442  0.45975877
   0.88901327  0.11098673  0.30994683
   0.77822218  0.22177782  0.14896066
   0.00022558  0.33350898  0.45975877
   0.22251893  0.44470691  0.30976571
   0.11078215  0.55481575  0.15476699
   0.33318856  0.33338141  0.45976027
   0.55541107  0.44458893  0.30968221
   0.44384472  0.55615528  0.15474349
   0.66669625  0.33330375  0.45972155
   0.88899666  0.44457659  0.30986951
   0.77849244  0.55529244  0.16121346
   0.00035438  0.66691732  0.45975063
   0.22220918  0.77779082  0.30995429
   0.11186947  0.88813053  0.15308743
   0.33325709  0.66674291  0.45960534
   0.55529309  0.77748107  0.30976571
   0.44518425  0.88921785  0.15476699
   0.66661859  0.66681144  0.45976027
   0.88911818  0.77802681  0.30986234
   0.77625804  0.88941755  0.16006232
   0.99954438  0.00045562  0.12237171
   0.11071552  0.22216374  0.27222216
   0.22244129  0.11124808  0.42278484
   0.11126130  0.22259698  0.04866546
   0.11126876  0.22247523  0.49710775
   0.99974880  0.00025120  0.34814024
   0.22173886  0.11079501  0.19755112
   0.33393770  0.00101140  0.12300465
   0.44489100  0.22262426  0.27238665
   0.55584651  0.11161515  0.42275271
   0.44462269  0.22221607  0.04740066
   0.44496538  0.22258007  0.49710665
   0.33363484  0.00008172  0.34829588
   0.55642900  0.11137110  0.19753043
   0.66697744  0.99851637  0.12368175
   0.77785075  0.22214925  0.27221060
   0.88877676  0.11122324  0.42249403
   0.77780570  0.22219430  0.05366340
   0.77752868  0.22247132  0.49713032
   0.66691132  0.00022640  0.34813331
   0.88876315  0.11123685  0.19766381
   0.00148363  0.33302256  0.12368175
   0.11103989  0.55541082  0.27225367
   0.22222948  0.44442955  0.42271369
   0.11156886  0.55573923  0.05111710
   0.11099235  0.55548972  0.49714965
   0.99977360  0.33308868  0.34813331
   0.22161131  0.44389087  0.19771240
   0.33201159  0.33134013  0.12202889
   0.44454529  0.55545471  0.27285066
   0.55575167  0.44424833  0.42266282
   0.44417461  0.55582539  0.05105696
   0.44455016  0.55544984  0.49708187
   0.33374402  0.33364769  0.34826457
   0.55564116  0.44435884  0.19789260
   0.66580642  0.33419358  0.12281732
   0.77737574  0.55510900  0.27238665
   0.88838485  0.44415349  0.42275271
   0.77778393  0.55537731  0.04740066
   0.77741993  0.55503462  0.49710665
   0.66658165  0.33341835  0.34836813
   0.88862890  0.44357100  0.19753043
   0.99898860  0.66606230  0.12300465
   0.11113704  0.88886296  0.27213444
   0.22223328  0.77776672  0.42282488
   0.11085096  0.88914904  0.05245187
   0.11120285  0.88879715  0.49716158
   0.99991828  0.66636516  0.34829588
   0.22202091  0.77797909  0.19748671
   0.33284324  0.66715676  0.12289674
   0.44458918  0.88896011  0.27225367
   0.55557045  0.77777052  0.42271369
   0.44426077  0.88843114  0.05111710
   0.44451028  0.88900765  0.49714965
   0.33334092  0.66665908  0.34818926
   0.55610913  0.77838869  0.19771240
   0.66865987  0.66798841  0.12202889
   0.77783626  0.88928448  0.27222216
   0.88875192  0.77755871  0.42278484
   0.77740302  0.88873870  0.04866546
   0.77752477  0.88873124  0.49710775
   0.66635231  0.66625598  0.34826457
   0.88920499  0.77826114  0.19755112
Direct configuration=     3
   0.00011441  0.99988559  0.45973906
   0.22195784  0.11086763  0.30985627
   0.11054965  0.22383661  0.16006682
   0.33306730  0.99962359  0.45973948
   0.55541491  0.11099671  0.30986388
   0.44472420  0.22146325  0.16128955
   0.66647989  0.99976039  0.45974812
   0.88902094  0.11097906  0.30994601
   0.77824968  0.22175032  0.14827475
   0.00023961  0.33352011  0.45974812
   0.22253752  0.44472350  0.30975363
   0.11076176  0.55476946  0.15444218
   0.33317977  0.33338461  0.45974972
   0.55540181  0.44459819  0.30966494
   0.44380770  0.55619230  0.15441721
   0.66669789  0.33330211  0.45970859
   0.88900329  0.44458509  0.30986388
   0.77853675  0.55527580  0.16128955
   0.00037641  0.66693270  0.45973948
   0.22220851  0.77779149  0.30995393
   0.11191670  0.88808330  0.15265816
   0.33325256  0.66674744  0.45958515
   0.55527650  0.77746248  0.30975363
   0.44523054  0.88923824  0.15444218
   0.66661539  0.66682023  0.45974972
   0.88913237  0.77804216  0.30985627
   0.77616339  0.88945035  0.16006682
   0.99951605  0.00048395  0.12236373
   0.11069099  0.22216024  0.27220675
   0.22245505  0.11125667  0.42280629
   0.11127071  0.22262042  0.04873732
   0.11127863  0.22249110  0.49708834
   0.99973317  0.00026683  0.34818317
   0.22170893  0.11077542  0.19755555
   0.33397549  0.00107430  0.12303604
   0.44491905  0.22264940  0.27238147
   0.55586433  0.11164656  0.42277215
   0.44463405  0.22221583  0.04739386
   0.44499806  0.22260246  0.49708716
   0.33365379  0.00008681  0.34834849
   0.55648305  0.11138733  0.19753356
   0.66699656  0.99842410  0.12375524
   0.77785515  0.22214485  0.27219446
   0.88876972  0.11123028  0.42249739
   0.77780730  0.22219270  0.05404608
   0.77751305  0.22248695  0.49711230
   0.66692633  0.00024048  0.34817580
   0.88875526  0.11124474  0.19767524
   0.00157590  0.33300344  0.12375524
   0.11103553  0.55540154  0.27224022
   0.22223007  0.44442890  0.42273071
   0.11159740  0.55575038  0.05134142
   0.11098504  0.55548535  0.49713284
   0.99975952  0.33307367  0.34817580
   0.22157345  0.44385672  0.19772685
   0.33192960  0.33121638  0.12199960
   0.44455184  0.55544816  0.27287434
   0.55576359  0.44423641  0.42267667
   0.44415811  0.55584189  0.05127754
   0.44455701  0.55544299  0.49706084
   0.33376976  0.33366745  0.34831523
   0.55564621  0.44435379  0.19791826
   0.66575271  0.33424729  0.12283705
   0.77735060  0.55508095  0.27238147
   0.88835344  0.44413567  0.42277215
   0.77778417  0.55536595  0.04739386
   0.77739754  0.55500194  0.49708716
   0.66657615  0.33342385  0.34842522
   0.88861267  0.44351695  0.19753356
   0.99892570  0.66602451  0.12303604
   0.11113873  0.88886127  0.27211357
   0.22223411  0.77776589  0.42284881
   0.11083485  0.88916515  0.05275920
   0.11120862  0.88879138  0.49714551
   0.99991319  0.66634621  0.34834849
   0.22200853  0.77799147  0.19748713
   0.33281297  0.66718703  0.12292141
   0.44459846  0.88896447  0.27224022
   0.55557110  0.77776993  0.42273071
   0.44424962  0.88840260  0.05134142
   0.44451465  0.88901496  0.49713284
   0.33334160  0.66665840  0.34823524
   0.55614328  0.77842655  0.19772685
   0.66878362  0.66807040  0.12199960
   0.77783976  0.88930901  0.27220675
   0.88874333  0.77754495  0.42280629
   0.77737958  0.88872929  0.04873732
   0.77750890  0.88872137  0.49708834
   0.66633255  0.66623024  0.34831523
   0.88922458  0.77829107  0.19755555
Direct configuration=     4
   0.00003612  0.99996388  0.46011901
   0.22119690  0.10966688  0.30976382
   0.11069964  0.22307076  0.15700058
   0.33337331  0.99992410  0.46014420
   0.55672555  0.11070560  0.30954715
   0.44460196  0.22152359  0.15799207
   0.66648088  0.99983045  0.46007110
   0.88817047  0.11182953  0.30977604
   0.77802715  0.22197285  0.14662525
   0.00016955  0.33351912  0.46007110
   0.22275733  0.44555613  0.30964231
   0.11069071  0.55513081  0.15218126
   0.33351678  0.33356543  0.46015319
   0.55490479  0.44509521  0.31004670
   0.44410189  0.55589811  0.15159009
   0.66657901  0.33342099  0.46015112
   0.88929440  0.44327445  0.30954715
   0.77847641  0.55539804  0.15799207
   0.00007590  0.66662669  0.46014420
   0.22214445  0.77785555  0.30922552
   0.11162995  0.88837005  0.15060065
   0.33335558  0.66664442  0.45996757
   0.55444387  0.77724267  0.30964231
   0.44486919  0.88930929  0.15218126
   0.66643457  0.66648322  0.46015319
   0.89033312  0.77880310  0.30976382
   0.77692924  0.88930036  0.15700058
   0.99890384  0.00109616  0.12212275
   0.11088585  0.22218486  0.27246625
   0.22229238  0.11109282  0.42249674
   0.11120278  0.22279117  0.05218967
   0.11119590  0.22240916  0.49653026
   0.99980590  0.00019410  0.34854311
   0.22214644  0.11137543  0.19784470
   0.33512436  0.00222339  0.12283804
   0.44472693  0.22253479  0.27252226
   0.55585365  0.11143754  0.42250420
   0.44479455  0.22232691  0.05072219
   0.44484837  0.22250714  0.49655334
   0.33360911  0.00026719  0.34870144
   0.55592530  0.11157837  0.19732750
   0.66670900  0.99660028  0.12331760
   0.77782967  0.22217033  0.27277116
   0.88876305  0.11123695  0.42233200
   0.77790637  0.22209363  0.05521776
   0.77760636  0.22239364  0.49658564
   0.66689553  0.00015715  0.34858573
   0.88908852  0.11091148  0.19769172
   0.00339972  0.33329100  0.12331760
   0.11102841  0.55538075  0.27253015
   0.22221060  0.44449861  0.42245384
   0.11170303  0.55556118  0.05425066
   0.11097693  0.55548878  0.49657023
   0.99984285  0.33310447  0.34858573
   0.22205176  0.44383830  0.19763041
   0.33161495  0.33064951  0.12186971
   0.44453253  0.55546747  0.27304640
   0.55566547  0.44433453  0.42235644
   0.44403475  0.55596525  0.05434463
   0.44454541  0.55545459  0.49649217
   0.33355747  0.33334792  0.34856313
   0.55560585  0.44439415  0.19807498
   0.66469926  0.33530074  0.12274644
   0.77746521  0.55527307  0.27252226
   0.88856246  0.44414635  0.42250420
   0.77767309  0.55520545  0.05072219
   0.77749286  0.55515163  0.49655334
   0.66655052  0.33344948  0.34864100
   0.88842163  0.44407470  0.19732750
   0.99777661  0.66487564  0.12283804
   0.11106100  0.88893900  0.27270313
   0.22222816  0.77777184  0.42264969
   0.11066580  0.88933420  0.05512605
   0.11118326  0.88881674  0.49659982
   0.99973281  0.66639089  0.34870144
   0.22202739  0.77797261  0.19710387
   0.33283128  0.66716872  0.12254774
   0.44461925  0.88897159  0.27253015
   0.55550139  0.77778940  0.42245384
   0.44443882  0.88829697  0.05425066
   0.44451122  0.88902307  0.49657023
   0.33333482  0.66666518  0.34862410
   0.55616170  0.77794824  0.19763041
   0.66935049  0.66838505  0.12186971
   0.77781514  0.88911415  0.27246625
   0.88890718  0.77770762  0.42249674
   0.77720883  0.88879722  0.05218967
   0.77759084  0.88880410  0.49653026
   0.66665208  0.66644253  0.34856313
   0.88862457  0.77785356  0.19784470
Direct configuration=     5
   0.00001023  0.99998977  0.46024469
   0.22094519  0.10926969  0.30973324
   0.11074926  0.22281743  0.15598632
   0.33347453  0.00002351  0.46027808
   0.55715909  0.11060930  0.30944238
   0.44456153  0.22154355  0.15690132
   0.66648121  0.99985362  0.46017794
   0.88788915  0.11211085  0.30971981
   0.77795354  0.22204646  0.14607963
   0.00014638  0.33351879  0.46017794
   0.22283004  0.44583154  0.30960548
   0.11066721  0.55525033  0.15143339
   0.33362825  0.33362524  0.46028666
   0.55474039  0.44525961  0.31017298
   0.44419921  0.55580079  0.15065492
   0.66653968  0.33346032  0.46029751
   0.88939070  0.44284091  0.30944238
   0.77845645  0.55543847  0.15690132
   0.99997649  0.66652547  0.46027808
   0.22212327  0.77787673  0.30898458
   0.11153510  0.88846490  0.14992006
   0.33338965  0.66661035  0.46009407
   0.55416846  0.77716996  0.30960548
   0.44474967  0.88933279  0.15143339
   0.66637476  0.66637175  0.46028666
   0.89073031  0.77905481  0.30973324
   0.77718257  0.88925074  0.15598632
   0.99870133  0.00129867  0.12204304
   0.11095030  0.22219300  0.27255209
   0.22223857  0.11103862  0.42239434
   0.11118030  0.22284765  0.05333165
   0.11116853  0.22238206  0.49634565
   0.99982995  0.00017005  0.34866217
   0.22229116  0.11157390  0.19794035
   0.33550439  0.00260349  0.12277255
   0.44466338  0.22249687  0.27256883
   0.55585011  0.11136839  0.42241557
   0.44484763  0.22236366  0.05182315
   0.44479885  0.22247561  0.49637676
   0.33359433  0.00032686  0.34881819
   0.55574081  0.11164156  0.19725934
   0.66661388  0.99599699  0.12317283
   0.77782124  0.22217876  0.27296192
   0.88876084  0.11123916  0.42227729
   0.77793913  0.22206087  0.05560533
   0.77763722  0.22236278  0.49641142
   0.66688534  0.00012959  0.34872133
   0.88919876  0.11080124  0.19769718
   0.00400301  0.33338612  0.12317283
   0.11102606  0.55537387  0.27262605
   0.22220416  0.44452166  0.42236226
   0.11173798  0.55549860  0.05521299
   0.11097425  0.55548992  0.49638413
   0.99987041  0.33311466  0.34872133
   0.22220998  0.44383220  0.19759851
   0.33151087  0.33046200  0.12182674
   0.44452614  0.55547386  0.27310332
   0.55563301  0.44436699  0.42225051
   0.44399394  0.55600606  0.05535917
   0.44454158  0.55545842  0.49630407
   0.33348724  0.33324222  0.34864514
   0.55559251  0.44440749  0.19812683
   0.66435080  0.33564920  0.12271646
   0.77750313  0.55533662  0.27256883
   0.88863161  0.44414989  0.42241557
   0.77763634  0.55515237  0.05182315
   0.77752439  0.55520115  0.49637676
   0.66654204  0.33345796  0.34871238
   0.88835844  0.44425919  0.19725934
   0.99739651  0.66449561  0.12277255
   0.11103529  0.88896471  0.27289815
   0.22222619  0.77777381  0.42258382
   0.11060988  0.88939012  0.05590896
   0.11117488  0.88882512  0.49641931
   0.99967314  0.66640567  0.34881819
   0.22203362  0.77796638  0.19697709
   0.33283734  0.66716266  0.12242414
   0.44462613  0.88897394  0.27262605
   0.55547834  0.77779584  0.42236226
   0.44450140  0.88826202  0.05521299
   0.44451008  0.88902575  0.49638413
   0.33333258  0.66666742  0.34875273
   0.55616780  0.77779002  0.19759851
   0.66953800  0.66848913  0.12182674
   0.77780700  0.88904970  0.27255209
   0.88896138  0.77776143  0.42239434
   0.77715235  0.88881970  0.05333165
   0.77761794  0.88883147  0.49634565
   0.66675778  0.66651276  0.34864514
   0.88842610  0.77770884  0.19794035
Direct configuration=     6
   0.99997565  0.00002435  0.45995074
   0.22148236  0.11005577  0.30922383
   0.11125411  0.22192024  0.15542572
   0.33352204  0.00004478  0.45990459
   0.55663015  0.11107180  0.30886996
   0.44428768  0.22223385  0.15560195
   0.66656151  0.99997127  0.46004777
   0.88831135  0.11168865  0.30900629
   0.77781691  0.22218309  0.14853489
   0.00002873  0.33343849  0.46004777
   0.22283343  0.44515869  0.30894010
   0.11092830  0.55550790  0.15306003
   0.33339829  0.33326474  0.45987179
   0.55500152  0.44499848  0.30954982
   0.44461608  0.55538392  0.15142616
   0.66661186  0.33338814  0.45991055
   0.88892820  0.44336985  0.30886996
   0.77776615  0.55571232  0.15560195
   0.99995522  0.66647796  0.45990459
   0.22200455  0.77799545  0.30849483
   0.11104035  0.88895965  0.15118845
   0.33322425  0.66677575  0.45994210
   0.55484131  0.77716657  0.30894010
   0.44449210  0.88907170  0.15306003
   0.66673526  0.66660171  0.45987179
   0.88994423  0.77851764  0.30922383
   0.77807976  0.88874589  0.15542572
   0.99839062  0.00160938  0.12181677
   0.11096119  0.22234789  0.27305082
   0.22202220  0.11078751  0.42243339
   0.11087778  0.22292472  0.05532294
   0.11114794  0.22234928  0.49614418
   0.99996775  0.00003225  0.34900528
   0.22232616  0.11146341  0.19768730
   0.33609803  0.00364498  0.12221576
   0.44454286  0.22215233  0.27286066
   0.55600711  0.11118131  0.42236235
   0.44484584  0.22225410  0.05451650
   0.44465355  0.22247017  0.49620656
   0.33337416  0.99994889  0.34900514
   0.55585739  0.11172721  0.19676559
   0.66663049  0.99533307  0.12236801
   0.77784306  0.22215694  0.27341329
   0.88864209  0.11135791  0.42232442
   0.77802291  0.22197709  0.05392827
   0.77773812  0.22226188  0.49620789
   0.66678179  0.00023755  0.34899132
   0.88915458  0.11084542  0.19735897
   0.00466693  0.33336951  0.12236801
   0.11113891  0.55548026  0.27304604
   0.22237843  0.44472798  0.42232032
   0.11178621  0.55537192  0.05517813
   0.11101655  0.55544434  0.49617814
   0.99976245  0.33321821  0.34899132
   0.22279933  0.44417308  0.19723057
   0.33158546  0.33000143  0.12169297
   0.44430398  0.55569602  0.27349518
   0.55542497  0.44457503  0.42238588
   0.44381949  0.55618051  0.05545908
   0.44454186  0.55545814  0.49611280
   0.33326846  0.33332714  0.34900311
   0.55534640  0.44465360  0.19773106
   0.66368952  0.33631048  0.12229094
   0.77784767  0.55545714  0.27286066
   0.88881869  0.44399289  0.42236235
   0.77774590  0.55515416  0.05451650
   0.77752983  0.55534645  0.49620656
   0.66681930  0.33318070  0.34895725
   0.88827279  0.44414261  0.19676559
   0.99635502  0.66390197  0.12221576
   0.11117298  0.88882702  0.27342815
   0.22220812  0.77779188  0.42245157
   0.11059642  0.88940358  0.05542315
   0.11111694  0.88888306  0.49620988
   0.00005111  0.66662584  0.34900514
   0.22191666  0.77808334  0.19647577
   0.33295650  0.66704350  0.12186237
   0.44451974  0.88886109  0.27304604
   0.55527202  0.77762157  0.42232032
   0.44462808  0.88821379  0.05517813
   0.44455566  0.88898345  0.49617814
   0.33329514  0.66670486  0.34895715
   0.55582692  0.77720067  0.19723057
   0.66999857  0.66841454  0.12169297
   0.77765211  0.88903881  0.27305082
   0.88921249  0.77797780  0.42243339
   0.77707528  0.88912222  0.05532294
   0.77765072  0.88885206  0.49614418
   0.66667286  0.66673154  0.34900311
   0.88853659  0.77767384  0.19768730
Direct configuration=     7
   0.99995879  0.00004121  0.45980747
   0.22174415  0.11043888  0.30897556
   0.11150016  0.22148298  0.15515250
   0.33354520  0.00005515  0.45972256
   0.55637236  0.11129720  0.30859097
   0.44415422  0.22257029  0.15496868
   0.66660065  0.00002861  0.45998433
   0.88851712  0.11148288  0.30865854
   0.77775031  0.22224969  0.14973152
   0.99997139  0.33339935  0.45998433
   0.22283508  0.44483075  0.30861581
   0.11105555  0.55563344  0.15385281
   0.33328621  0.33308904  0.45966959
   0.55512878  0.44487122  0.30924611
   0.44481925  0.55518075  0.15180205
   0.66664704  0.33335296  0.45972196
   0.88870280  0.44362764  0.30859097
   0.77742971  0.55584578  0.15496868
   0.99994485  0.66645480  0.45972256
   0.22194670  0.77805330  0.30825613
   0.11079923  0.88920077  0.15180663
   0.33314363  0.66685637  0.45986804
   0.55516925  0.77716492  0.30861581
   0.44436656  0.88894445  0.15385281
   0.66691096  0.66671379  0.45966959
   0.88956112  0.77825585  0.30897556
   0.77851702  0.88849984  0.15515250
   0.99823919  0.00176081  0.12170649
   0.11096649  0.22242338  0.27329388
   0.22191675  0.11066512  0.42245242
   0.11073034  0.22296229  0.05629345
   0.11113790  0.22233330  0.49604598
   0.00003491  0.99996509  0.34917251
   0.22234322  0.11140956  0.19756397
   0.33638735  0.00415257  0.12194439
   0.44448412  0.22198441  0.27300289
   0.55608363  0.11109014  0.42233641
   0.44484497  0.22220070  0.05582917
   0.44458274  0.22246751  0.49612361
   0.33326686  0.99976469  0.34909626
   0.55591421  0.11176895  0.19652495
   0.66663858  0.99500950  0.12197576
   0.77785369  0.22214631  0.27363328
   0.88858421  0.11141579  0.42234739
   0.77806374  0.22193626  0.05311092
   0.77778730  0.22221270  0.49610870
   0.66673132  0.00029016  0.34912291
   0.88913305  0.11086695  0.19719414
   0.00499050  0.33336142  0.12197576
   0.11119391  0.55553211  0.27325073
   0.22246337  0.44482853  0.42229988
   0.11180971  0.55531019  0.05516114
   0.11103716  0.55542213  0.49607774
   0.99970984  0.33326868  0.34912291
   0.22308656  0.44433921  0.19705125
   0.33162181  0.32977697  0.12162778
   0.44419570  0.55580430  0.27368616
   0.55532358  0.44467642  0.42245186
   0.44373446  0.55626554  0.05550777
   0.44454200  0.55545800  0.49601958
   0.33316183  0.33336852  0.34917757
   0.55522645  0.44477355  0.19753818
   0.66336724  0.33663276  0.12208356
   0.77801559  0.55551588  0.27300289
   0.88890986  0.44391637  0.42233641
   0.77779930  0.55515503  0.05582917
   0.77753249  0.55541726  0.49612361
   0.66695444  0.33304556  0.34907660
   0.88823105  0.44408579  0.19652495
   0.99584743  0.66361265  0.12194439
   0.11124008  0.88875992  0.27368646
   0.22219931  0.77780069  0.42238712
   0.11058986  0.88941014  0.05518637
   0.11108870  0.88891130  0.49610781
   0.00023531  0.66673314  0.34909626
   0.22185965  0.77814035  0.19623144
   0.33301457  0.66698543  0.12158858
   0.44446789  0.88880609  0.27325073
   0.55517147  0.77753663  0.42229988
   0.44468981  0.88819029  0.05516114
   0.44457787  0.88896284  0.49607774
   0.33327689  0.66672311  0.34905678
   0.55566079  0.77691344  0.19705125
   0.67022303  0.66837819  0.12162778
   0.77757662  0.88903351  0.27329388
   0.88933488  0.77808325  0.42245242
   0.77703771  0.88926966  0.05629345
   0.77766670  0.88886210  0.49604598
   0.66663148  0.66683817  0.34917757
   0.88859044  0.77765678  0.19756397
Direct configuration=     8
   0.99991520  0.00008480  0.45958119
   0.22211522  0.11081568  0.30915563
   0.11165363  0.22159989  0.15609122
   0.33344391  0.99993536  0.45943604
   0.55613788  0.11142216  0.30876403
   0.44416384  0.22283767  0.15574341
   0.66668302  0.99999086  0.45961492
   0.88860978  0.11139022  0.30888131
   0.77781253  0.22218747  0.15088895
   0.00000914  0.33331698  0.45961492
   0.22259927  0.44463782  0.30887419
   0.11113849  0.55550048  0.15483302
   0.33314700  0.33321122  0.45951277
   0.55537382  0.44462618  0.30918464
   0.44482291  0.55517709  0.15315596
   0.66672248  0.33327752  0.45947825
   0.88857784  0.44386212  0.30876403
   0.77716233  0.55583616  0.15574341
   0.00006464  0.66655609  0.45943604
   0.22202860  0.77797140  0.30869931
   0.11074481  0.88925519  0.15300026
   0.33322655  0.66677345  0.45951306
   0.55536218  0.77740073  0.30887419
   0.44449952  0.88886151  0.15483302
   0.66678878  0.66685300  0.45951277
   0.88918432  0.77788478  0.30915563
   0.77840011  0.88834637  0.15609122
   0.99872069  0.00127931  0.12128453
   0.11104761  0.22238813  0.27353493
   0.22194906  0.11062407  0.42226051
   0.11063758  0.22311223  0.05654849
   0.11111939  0.22228937  0.49589252
   0.00007919  0.99992081  0.34902724
   0.22181275  0.11063148  0.19737967
   0.33577565  0.00339937  0.12134183
   0.44450523  0.22203728  0.27333902
   0.55601516  0.11113988  0.42218280
   0.44486639  0.22208842  0.05635521
   0.44455227  0.22236764  0.49590959
   0.33326300  0.99977308  0.34893718
   0.55670354  0.11173141  0.19622249
   0.66662555  0.99606006  0.12131252
   0.77782147  0.22217853  0.27354155
   0.88861083  0.11138917  0.42223866
   0.77805438  0.22194562  0.05328619
   0.77777554  0.22222446  0.49602047
   0.66662972  0.00022742  0.34895327
   0.88872662  0.11127338  0.19698096
   0.00393994  0.33337445  0.12131252
   0.11117431  0.55562550  0.27317954
   0.22253733  0.44482831  0.42214489
   0.11186780  0.55532590  0.05545383
   0.11102151  0.55547804  0.49596188
   0.99977258  0.33337028  0.34895327
   0.22353767  0.44484006  0.19691311
   0.33204453  0.33034152  0.12118752
   0.44427783  0.55572217  0.27379760
   0.55533525  0.44466475  0.42219954
   0.44367172  0.55632828  0.05509313
   0.44451544  0.55548456  0.49587149
   0.33326958  0.33333257  0.34902604
   0.55480778  0.44519222  0.19739084
   0.66396912  0.33603088  0.12136263
   0.77796272  0.55549477  0.27333902
   0.88886012  0.44398484  0.42218280
   0.77791158  0.55513361  0.05635521
   0.77763236  0.55544773  0.49590959
   0.66686762  0.33313238  0.34895431
   0.88826859  0.44329646  0.19622249
   0.99660063  0.66422435  0.12134183
   0.11124518  0.88875482  0.27369772
   0.22213014  0.77786986  0.42218340
   0.11060530  0.88939470  0.05496724
   0.11111140  0.88888860  0.49594253
   0.00022692  0.66673700  0.34893718
   0.22173367  0.77826633  0.19599419
   0.33300383  0.66699617  0.12113930
   0.44437450  0.88882569  0.27317954
   0.55517169  0.77746267  0.42214489
   0.44467410  0.88813220  0.05545383
   0.44452196  0.88897849  0.49596188
   0.33322530  0.66677470  0.34886940
   0.55515994  0.77646233  0.19691311
   0.66965848  0.66795547  0.12118752
   0.77761187  0.88895239  0.27353493
   0.88937593  0.77805094  0.42226051
   0.77688777  0.88936242  0.05654849
   0.77771063  0.88888061  0.49589252
   0.66666743  0.66673042  0.34902604
   0.88936852  0.77818725  0.19737967
Direct configuration=     9
   0.99988097  0.00011903  0.45940352
   0.22240657  0.11111153  0.30929702
   0.11177412  0.22169169  0.15682826
   0.33336438  0.99984130  0.45921109
   0.55595378  0.11152027  0.30889990
   0.44417140  0.22304761  0.15635169
   0.66674769  0.99996123  0.45932487
   0.88868253  0.11131747  0.30905622
   0.77786138  0.22213862  0.15179772
   0.00003877  0.33325231  0.45932487
   0.22241412  0.44448633  0.30907706
   0.11120360  0.55539609  0.15560264
   0.33303770  0.33330715  0.45938964
   0.55556621  0.44443379  0.30913639
   0.44482578  0.55517422  0.15421898
   0.66678172  0.33321828  0.45928690
   0.88847973  0.44404622  0.30889990
   0.77695239  0.55582860  0.15635169
   0.00015870  0.66663562  0.45921109
   0.22209291  0.77790709  0.30904728
   0.11070208  0.88929792  0.15393745
   0.33329165  0.66670835  0.45923436
   0.55551367  0.77758588  0.30907706
   0.44460391  0.88879640  0.15560264
   0.66669285  0.66696230  0.45938964
   0.88888847  0.77759343  0.30929702
   0.77830831  0.88822588  0.15682826
   0.99909874  0.00090126  0.12095322
   0.11111131  0.22236046  0.27372419
   0.22197443  0.11059184  0.42210983
   0.11056475  0.22322996  0.05674874
   0.11110486  0.22225487  0.49577203
   0.00011395  0.99988605  0.34891318
   0.22139625  0.11002057  0.19723496
   0.33529536  0.00280799  0.12086873
   0.44452179  0.22207879  0.27360294
   0.55596141  0.11117893  0.42206219
   0.44488321  0.22200026  0.05676823
   0.44452836  0.22228922  0.49574155
   0.33325998  0.99977968  0.34881228
   0.55732329  0.11170193  0.19598501
   0.66661531  0.99688491  0.12079178
   0.77779617  0.22220383  0.27346952
   0.88863173  0.11136827  0.42215329
   0.77804704  0.22195296  0.05342381
   0.77776631  0.22223369  0.49595120
   0.66654994  0.00017816  0.34882008
   0.88840752  0.11159248  0.19681359
   0.00311509  0.33338469  0.12079178
   0.11115892  0.55569883  0.27312365
   0.22259540  0.44482814  0.42202320
   0.11191341  0.55533824  0.05568363
   0.11100922  0.55552193  0.49587092
   0.99982184  0.33345006  0.34882008
   0.22389187  0.44523330  0.19680464
   0.33237642  0.33078478  0.12084185
   0.44434232  0.55565768  0.27388509