       N       E                     dE             d eps       ncg     rms          rms(c)
DAV:   1     0.105405865480E+05    0.10541E+05   -0.27739E+05  7680   0.146E+03
DAV:   2     0.272732572063E+04   -0.78133E+04   -0.65001E+04  8544   0.393E+02
DAV:   3    -0.412868849403E+03   -0.31402E+04   -0.29635E+04 10128   0.229E+02
DAV:   4    -0.826237378853E+03   -0.41337E+03   -0.40720E+03 11184   0.908E+01
DAV:   5    -0.846102054226E+03   -0.19865E+02   -0.19788E+02 13248   0.253E+01    0.138E+02
DAV:   6    -0.147070889888E+04   -0.62461E+03   -0.62821E+03 12816   0.771E+01    0.451E+02
DAV:   7    -0.812400301672E+03    0.65831E+03   -0.29966E+03 12192   0.127E+02    0.279E+02
DAV:   8    -0.726311892902E+03    0.86088E+02   -0.14312E+03 12432   0.633E+01    0.223E+02
DAV:   9    -0.967405876207E+03   -0.24109E+03   -0.22668E+03 13056   0.116E+02    0.367E+02
DAV:  10    -0.107029732938E+04   -0.10289E+03   -0.80847E+02 13200   0.633E+01    0.326E+02
DAV:  11    -0.917580988813E+03    0.15272E+03   -0.85493E+02 12528   0.683E+01    0.253E+02
DAV:  12    -0.765351479919E+03    0.15223E+03   -0.29409E+02 11520   0.661E+01    0.904E+01
DAV:  13    -0.710265352359E+03    0.55086E+02   -0.59393E+01 12048   0.167E+01    0.763E+01
DAV:  14    -0.681434556373E+03    0.28831E+02   -0.32772E+01 13008   0.106E+01    0.767E+01
DAV:  15    -0.605364266304E+03    0.76070E+02   -0.85825E+01 12096   0.196E+01    0.476E+01
DAV:  16    -0.606051327816E+03   -0.68706E+00   -0.51253E+01 11856   0.101E+01    0.524E+01
DAV:  17    -0.612819728046E+03   -0.67684E+01   -0.31820E+01 12432   0.952E+00    0.582E+01
DAV:  18    -0.606200099587E+03    0.66196E+01   -0.26714E+01 13104   0.547E+00    0.470E+01
DAV:  19    -0.604437721246E+03    0.17624E+01   -0.32335E+01 11712   0.320E+00    0.420E+01
DAV:  20    -0.606028537914E+03   -0.15908E+01   -0.15483E+01 11808   0.212E+00    0.427E+01
DAV:  21    -0.605853060209E+03    0.17548E+00   -0.69467E+00 11568   0.161E+00    0.388E+01
DAV:  22    -0.605962443303E+03   -0.10938E+00   -0.12067E+00 10704   0.920E-01    0.382E+01
DAV:  23    -0.605984328847E+03   -0.21886E-01   -0.85109E-02 11424   0.436E-01    0.382E+01
DAV:  24    -0.606498817665E+03   -0.51449E+00   -0.60179E-01 10944   0.783E-01    0.370E+01
DAV:  25    -0.607688524677E+03   -0.11897E+01   -0.39301E+00 10656   0.149E+00    0.383E+01
DAV:  26    -0.608929612254E+03   -0.12411E+01   -0.18854E+00 10224   0.172E+00    0.380E+01
DAV:  27    -0.611156542655E+03   -0.22269E+01   -0.63611E+00 11280   0.184E+00    0.371E+01
DAV:  28    -0.611248865445E+03   -0.92323E-01   -0.16562E-01 10224   0.712E-01    0.371E+01
DAV:  29    -0.610968169768E+03    0.28070E+00   -0.14029E-01 11280   0.374E-01    0.362E+01
DAV:  30    -0.611042728320E+03   -0.74559E-01   -0.79896E-03 10464   0.165E-01    0.362E+01
DAV:  31    -0.611748508972E+03   -0.70578E+00   -0.57095E-01 10032   0.100E+00    0.356E+01
DAV:  32    -0.612197391609E+03   -0.44888E+00   -0.39317E-01 10800   0.738E-01    0.359E+01
DAV:  33    -0.615313528661E+03   -0.31161E+01   -0.83636E+00 10320   0.286E+00    0.395E+01
DAV:  34    -0.615716157371E+03   -0.40263E+00   -0.22627E+00 10272   0.183E+00    0.343E+01
DAV:  35    -0.618512082589E+03   -0.27959E+01   -0.37690E+00 11136   0.335E+00    0.299E+01
DAV:  36    -0.618754377395E+03   -0.24229E+00   -0.28222E+00 11856   0.371E+00    0.268E+01
DAV:  37    -0.618654045930E+03    0.10033E+00   -0.43646E+00 11520   0.291E+00    0.236E+01
DAV:  38    -0.619085050578E+03   -0.43100E+00   -0.29563E+00 11904   0.190E+00    0.238E+01
DAV:  39    -0.618967149264E+03    0.11790E+00   -0.86123E-01 10512   0.815E-01    0.224E+01
DAV:  40    -0.618922111610E+03    0.45038E-01   -0.51190E-02 12720   0.369E-01    0.223E+01
DAV:  41    -0.618998124476E+03   -0.76013E-01   -0.24198E+00 10416   0.152E+00    0.232E+01
DAV:  42    -0.619508325580E+03   -0.51020E+00   -0.64622E-01 10848   0.141E+00    0.218E+01
DAV:  43    -0.619706740026E+03   -0.19841E+00   -0.70018E-01 10032   0.124E+00    0.208E+01
DAV:  44    -0.619653807388E+03    0.52933E-01   -0.12606E+00 11952   0.238E+00    0.195E+01
DAV:  45    -0.618955555498E+03    0.69825E+00   -0.46592E+00 11184   0.246E+00    0.218E+01
DAV:  46    -0.618854460483E+03    0.10110E+00   -0.10267E+00 11808   0.174E+00    0.208E+01
DAV:  47    -0.618781270417E+03    0.73190E-01   -0.13912E-01 10368   0.579E-01    0.206E+01
DAV:  48    -0.619002299461E+03   -0.22103E+00   -0.19588E-01 12432   0.859E-01    0.204E+01
DAV:  49    -0.618757382429E+03    0.24492E+00   -0.32709E+00 10944   0.246E+00    0.197E+01
DAV:  50    -0.618469829795E+03    0.28755E+00   -0.42979E-01 10944   0.997E-01    0.187E+01
DAV:  51    -0.616680204279E+03    0.17896E+01   -0.25827E+01 12480   0.882E+00    0.245E+01
DAV:  52    -0.616594727721E+03    0.85477E-01   -0.40511E+00 10704   0.374E+00    0.231E+01
DAV:  53    -0.615954120042E+03    0.64061E+00   -0.15001E+00 11616   0.192E+00    0.215E+01
DAV:  54    -0.615514815799E+03    0.43930E+00   -0.81539E-01 11088   0.113E+00    0.193E+01
DAV:  55    -0.615081980520E+03    0.43284E+00   -0.84444E-01 11136   0.962E-01    0.179E+01
DAV:  56    -0.612617999880E+03    0.24640E+01   -0.33748E+01 11424   0.973E+00    0.221E+01
DAV:  57    -0.613595805038E+03   -0.97781E+00   -0.75751E+00 11328   0.524E+00    0.147E+01
DAV:  58    -0.613585311753E+03    0.10493E-01   -0.58701E+00 11376   0.435E+00    0.172E+01
DAV:  59    -0.612784570208E+03    0.80074E+00   -0.24611E+00 11280   0.284E+00    0.164E+01
DAV:  60    -0.612441166934E+03    0.34340E+00   -0.97115E+00 11280   0.310E+00    0.158E+01
DAV:  61    -0.614151768220E+03   -0.17106E+01   -0.15689E+01 10896   0.571E+00    0.240E+01
DAV:  62    -0.614242117290E+03   -0.90349E-01   -0.18848E+00 11568   0.234E+00    0.242E+01
DAV:  63    -0.614463087803E+03   -0.22097E+00   -0.90194E-01 11040   0.171E+00    0.230E+01
DAV:  64    -0.614348455743E+03    0.11463E+00   -0.23569E+00 10992   0.246E+00    0.196E+01
DAV:  65    -0.614686406346E+03   -0.33795E+00   -0.98157E+00 11184   0.204E+00    0.178E+01
DAV:  66    -0.614989893696E+03   -0.30349E+00   -0.12319E+01 10896   0.301E+00    0.139E+01
DAV:  67    -0.615187846141E+03   -0.19795E+00   -0.12479E+00 11232   0.169E+00    0.130E+01
DAV:  68    -0.615530574764E+03   -0.34273E+00   -0.13892E+00 11136   0.117E+00    0.118E+01
DAV:  69    -0.615772480080E+03   -0.24191E+00   -0.72979E-01 11280   0.112E+00    0.127E+01
DAV:  70    -0.615733175101E+03    0.39305E-01   -0.11941E-01 10608   0.600E-01    0.126E+01
DAV:  71    -0.615302800518E+03    0.43037E+00   -0.13090E+00 11280   0.190E+00    0.102E+01
DAV:  72    -0.615327189201E+03   -0.24389E-01   -0.15061E+00 10656   0.115E+00    0.687E+00
DAV:  73    -0.615603924777E+03   -0.27674E+00   -0.25469E-01 11184   0.802E-01    0.754E+00
DAV:  74    -0.615714869398E+03   -0.11094E+00   -0.59502E-02 11328   0.404E-01    0.872E+00
DAV:  75    -0.615629428857E+03    0.85441E-01   -0.72647E-02 10944   0.542E-01    0.879E+00
DAV:  76    -0.615781496441E+03   -0.15207E+00   -0.41974E-01 11088   0.105E+00    0.873E+00
DAV:  77    -0.615909807147E+03   -0.12831E+00   -0.17468E-01 11376   0.659E-01    0.823E+00
DAV:  78    -0.616013207623E+03   -0.10340E+00   -0.33333E-02 10704   0.306E-01    0.841E+00
DAV:  79    -0.616107249832E+03   -0.94042E-01   -0.19487E-02 10944   0.247E-01    0.839E+00
DAV:  80    -0.616312083280E+03   -0.20483E+00   -0.89873E-02 10752   0.528E-01    0.843E+00
DAV:  81    -0.616637037896E+03   -0.32495E+00   -0.66105E-01 11280   0.133E+00    0.993E+00
DAV:  82    -0.616591388235E+03    0.45650E-01   -0.93714E-02 10032   0.537E-01    0.973E+00
DAV:  83    -0.616545629378E+03    0.45759E-01   -0.40316E-02 11280   0.348E-01    0.984E+00
DAV:  84    -0.616552844072E+03   -0.72147E-02   -0.84845E-03 10080   0.171E-01    0.968E+00
DAV:  85    -0.616553161989E+03   -0.31792E-03   -0.18202E-03 11808   0.695E-02    0.971E+00
DAV:  86    -0.616409591992E+03    0.14357E+00   -0.15753E-01 10800   0.686E-01    0.102E+01
DAV:  87    -0.616414371420E+03   -0.47794E-02   -0.21985E-02 10608   0.289E-01    0.102E+01
DAV:  88    -0.616411506969E+03    0.28645E-02   -0.24712E-02 11376   0.302E-01    0.107E+01
DAV:  89    -0.616406086234E+03    0.54207E-02   -0.48952E-03  9600   0.119E-01    0.107E+01
DAV:  90    -0.616405339321E+03    0.74691E-03   -0.32416E-03 11376   0.990E-02
   1 F= -.61640534E+03 E0= -.61638266E+03  d E =-.616405E+03  mag=    16.5550
       N       E                     dE             d eps       ncg     rms          rms(c)
DAV:   1    -0.617128692183E+03   -0.72261E+00   -0.80031E+02  7680   0.403E+01    0.131E+01
DAV:   2    -0.624420513836E+03   -0.72918E+01   -0.36662E+01 12000   0.122E+01    0.374E+01
DAV:   3    -0.618761138356E+03    0.56594E+01   -0.52998E+01 11376   0.689E+00    0.101E+01
DAV:   4    -0.618735482449E+03    0.25656E-01   -0.40922E+00 11328   0.357E+00    0.891E+00
DAV:   5    -0.619215733633E+03   -0.48025E+00   -0.15859E+00 10416   0.154E+00    0.101E+01
DAV:   6    -0.619331697300E+03   -0.11596E+00   -0.46261E-01 11904   0.114E+00    0.831E+00
DAV:   7    -0.619475497079E+03   -0.14380E+00   -0.10421E+00 11472   0.204E+00    0.453E+00
DAV:   8    -0.619675036602E+03   -0.19954E+00   -0.63349E-01 11424   0.147E+00    0.337E+00
DAV:   9    -0.619787222266E+03   -0.11219E+00   -0.27476E-01 11664   0.105E+00    0.275E+00
DAV:  10    -0.619971940693E+03   -0.18472E+00   -0.14445E-01 10704   0.805E-01    0.276E+00
DAV:  11    -0.620021662488E+03   -0.49722E-01   -0.53530E-02 11520   0.457E-01    0.183E+00
DAV:  12    -0.620196292815E+03   -0.17463E+00   -0.51526E-02 10656   0.409E-01    0.181E+00
DAV:  13    -0.620254740552E+03   -0.58448E-01   -0.20802E-02 11952   0.233E-01    0.153E+00
DAV:  14    -0.620376305976E+03   -0.12157E+00   -0.35273E-02 11328   0.317E-01    0.122E+00
DAV:  15    -0.620475343206E+03   -0.99037E-01   -0.42705E-02 11328   0.335E-01    0.811E-01
DAV:  16    -0.620540732275E+03   -0.65389E-01   -0.32099E-02 11040   0.229E-01    0.858E-01
DAV:  17    -0.620562604926E+03   -0.21873E-01   -0.49826E-03 10704   0.124E-01    0.773E-01
DAV:  18    -0.620567396774E+03   -0.47918E-02   -0.12667E-03 12240   0.567E-02    0.684E-01
DAV:  19    -0.620592490660E+03   -0.25094E-01   -0.82330E-03 11856   0.159E-01    0.760E-01
DAV:  20    -0.620594401933E+03   -0.19113E-02   -0.99746E-03 11520   0.149E-01    0.602E-01
DAV:  21    -0.620601334290E+03   -0.69324E-02   -0.43708E-03 11184   0.108E-01    0.537E-01
DAV:  22    -0.620618377499E+03   -0.17043E-01   -0.50480E-03 11424   0.922E-02    0.369E-01
DAV:  23    -0.620638030982E+03   -0.19653E-01   -0.51878E-03 10944   0.946E-02    0.521E-01
DAV:  24    -0.620644410949E+03   -0.63800E-02   -0.21180E-03 10608   0.745E-02    0.368E-01
DAV:  25    -0.620647404457E+03   -0.29935E-02   -0.15164E-03 10800   0.595E-02    0.254E-01
DAV:  26    -0.620647885365E+03   -0.48091E-03   -0.83996E-04 10944   0.409E-02    0.239E-01
DAV:  27    -0.620648014979E+03   -0.12961E-03   -0.17023E-04 11664   0.232E-02    0.218E-01
DAV:  28    -0.620648088252E+03   -0.73273E-04   -0.16927E-04 10944   0.164E-02    0.170E-01
DAV:  29    -0.620648218407E+03   -0.13016E-03   -0.80744E-05 10752   0.110E-02    0.184E-01
DAV:  30    -0.620648236408E+03   -0.18001E-04   -0.18845E-05 10512   0.587E-03    0.189E-01
DAV:  31    -0.620648167763E+03    0.68646E-04   -0.28702E-04  9840   0.153E-02    0.189E-01
DAV:  32    -0.620647779682E+03    0.38808E-03   -0.13975E-03 10656   0.363E-02    0.127E-01
DAV:  33    -0.620647702977E+03    0.76705E-04   -0.62531E-04 11040   0.286E-02    0.109E-01
DAV:  34    -0.620647542382E+03    0.16060E-03   -0.43531E-04 11232   0.217E-02    0.771E-02
DAV:  35    -0.620647452869E+03    0.89512E-04   -0.57835E-04 10848   0.253E-02    0.104E-01
DAV:  36    -0.620647670369E+03   -0.21750E-03   -0.40094E-04 10752   0.199E-02    0.864E-02
DAV:  37    -0.620647816526E+03   -0.14616E-03   -0.83987E-04 10368   0.246E-02    0.937E-02
DAV:  38    -0.620647920752E+03   -0.10423E-03   -0.53834E-04 11040   0.212E-02    0.991E-02
DAV:  39    -0.620647989004E+03   -0.68251E-04   -0.34083E-04  9552   0.208E-02    0.852E-02
DAV:  40    -0.620648134891E+03   -0.14589E-03   -0.73661E-04 10656   0.270E-02    0.101E-01
DAV:  41    -0.620648332393E+03   -0.19750E-03   -0.21017E-03 10320   0.388E-02    0.964E-02
DAV:  42    -0.620648541971E+03   -0.20958E-03   -0.52885E-03 10272   0.579E-02    0.241E-01
DAV:  43    -0.620648845417E+03   -0.30345E-03   -0.12374E-03 10656   0.350E-02    0.331E-01
DAV:  44    -0.620648764628E+03    0.80789E-04   -0.16275E-03  9456   0.404E-02    0.205E-01
DAV:  45    -0.620648958063E+03   -0.19343E-03   -0.32931E-04 11136   0.183E-02    0.171E-01
DAV:  46    -0.620648694035E+03    0.26403E-03   -0.59710E-03  9840   0.593E-02    0.983E-02
DAV:  47    -0.620648976452E+03   -0.28242E-03   -0.87783E-04 10368   0.321E-02    0.686E-02
DAV:  48    -0.620649013138E+03   -0.36686E-04   -0.58412E-04 10896   0.212E-02    0.119E-01
DAV:  49    -0.620649012165E+03    0.97369E-06   -0.24695E-04 10368   0.145E-02    0.123E-01
DAV:  50    -0.620649003620E+03    0.85449E-05   -0.75437E-05 10224   0.824E-03    0.110E-01
DAV:  51    -0.620648967522E+03    0.36098E-04   -0.30824E-04 10224   0.139E-02    0.115E-01
DAV:  52    -0.620648895983E+03    0.71538E-04   -0.67079E-04 10368   0.212E-02    0.162E-01
DAV:  53    -0.620648941446E+03   -0.45462E-04   -0.33347E-05  9264   0.111E-02    0.162E-01
DAV:  54    -0.620648937792E+03    0.36533E-05   -0.21151E-06  7536   0.195E-03    0.166E-01
DAV:  55    -0.620648934604E+03    0.31885E-05   -0.32149E-06  6768   0.186E-03    0.173E-01
DAV:  56    -0.620648937555E+03   -0.29508E-05   -0.22313E-06  6384   0.181E-03    0.174E-01
DAV:  57    -0.620648954388E+03   -0.16834E-04   -0.10445E-04  9216   0.940E-03    0.153E-01
DAV:  58    -0.620648990643E+03   -0.36255E-04   -0.30051E-05  9984   0.518E-03    0.147E-01
DAV:  59    -0.620649027051E+03   -0.36408E-04   -0.35046E-04  9840   0.155E-02    0.125E-01
DAV:  60    -0.620649069529E+03   -0.42478E-04   -0.26353E-04 10704   0.130E-02    0.118E-01
DAV:  61    -0.620649098261E+03   -0.28732E-04   -0.13729E-04 10512   0.928E-03    0.117E-01
DAV:  62    -0.620649118592E+03   -0.20331E-04   -0.10072E-05  8736   0.482E-03    0.130E-01
DAV:  63    -0.620649113740E+03    0.48515E-05   -0.82694E-07  6096   0.182E-03    0.130E-01
DAV:  64    -0.620649112444E+03    0.12967E-05   -0.58996E-08  4992   0.638E-04    0.131E-01
DAV:  65    -0.620649111578E+03    0.86534E-06   -0.83947E-08  4992   0.472E-04
   2 F= -.62064911E+03 E0= -.62062425E+03  d E =-.424377E+01  mag=    11.1416
       N       E                     dE             d eps       ncg     rms          rms(c)
DAV:   1    -0.620786681745E+03   -0.13757E+00   -0.89144E+00  7680   0.422E+00    0.783E-01
DAV:   2    -0.620808829332E+03   -0.22148E-01   -0.20033E-01 11424   0.994E-01    0.234E+00
DAV:   3    -0.620799459178E+03    0.93702E-02   -0.23102E-02 11568   0.499E-01    0.658E-01
DAV:   4    -0.620800780262E+03   -0.13211E-02   -0.87465E-03 12768   0.172E-01    0.565E-01
DAV:   5    -0.620800407304E+03    0.37296E-03   -0.30516E-03 11568   0.117E-01    0.350E-01
DAV:   6    -0.620800542256E+03   -0.13495E-03   -0.35392E-03 12096   0.112E-01    0.454E-01
DAV:   7    -0.620800584896E+03   -0.42640E-04   -0.15939E-03 12240   0.773E-02    0.340E-01
DAV:   8    -0.620800536858E+03    0.48038E-04   -0.97961E-04 11808   0.668E-02    0.103E-01
DAV:   9    -0.620800741818E+03   -0.20496E-03   -0.29882E-04 11184   0.306E-02    0.692E-02
DAV:  10    -0.620800859598E+03   -0.11778E-03   -0.12387E-04 11568   0.185E-02    0.515E-02
DAV:  11    -0.620800999853E+03   -0.14025E-03   -0.11826E-04 11616   0.134E-02    0.676E-02
DAV:  12    -0.620801075295E+03   -0.75441E-04   -0.49260E-05 11760   0.109E-02    0.467E-02
DAV:  13    -0.620801128614E+03   -0.53319E-04   -0.27426E-05 10848   0.698E-03    0.404E-02
DAV:  14    -0.620801143360E+03   -0.14746E-04   -0.10325E-05  9408   0.390E-03    0.376E-02
DAV:  15    -0.620801157277E+03   -0.13917E-04   -0.50937E-06  7296   0.241E-03    0.386E-02
DAV:  16    -0.620801166780E+03   -0.95036E-05   -0.28454E-06  6576   0.189E-03    0.385E-02
DAV:  17    -0.620801114900E+03    0.51880E-04   -0.51894E-05  8208   0.657E-03    0.400E-02
DAV:  18    -0.620801108609E+03    0.62911E-05   -0.72164E-06  8400   0.292E-03    0.407E-02
DAV:  19    -0.620801241352E+03   -0.13274E-03   -0.13099E-03  9792   0.298E-02    0.779E-02
DAV:  20    -0.620801151826E+03    0.89527E-04   -0.60490E-04  9504   0.262E-02    0.820E-02
DAV:  21    -0.620800866408E+03    0.28542E-03   -0.31499E-03 10032   0.462E-02    0.131E-01
DAV:  22    -0.620800614034E+03    0.25237E-03   -0.29325E-03 10848   0.447E-02    0.156E-01
DAV:  23    -0.620800773856E+03   -0.15982E-03   -0.17150E-04  9984   0.216E-02    0.156E-01
DAV:  24    -0.620800821713E+03   -0.47857E-04   -0.21940E-05  9360   0.740E-03    0.148E-01
DAV:  25    -0.620800867957E+03   -0.46243E-04   -0.10271E-05  9888   0.431E-03    0.185E-01
DAV:  26    -0.620800928122E+03   -0.60165E-04   -0.52863E-04  9648   0.206E-02    0.133E-01
DAV:  27    -0.620801051586E+03   -0.12346E-03   -0.92179E-05 10176   0.125E-02    0.176E-01
DAV:  28    -0.620801120897E+03   -0.69311E-04   -0.14058E-03  9888   0.312E-02    0.153E-01
DAV:  29    -0.620801193914E+03   -0.73016E-04   -0.72311E-05  9792   0.144E-02    0.166E-01
DAV:  30    -0.620801176220E+03    0.17693E-04   -0.10869E-05  8592   0.458E-03    0.161E-01
DAV:  31    -0.620801123583E+03    0.52638E-04   -0.13587E-04  9504   0.968E-03    0.125E-01
DAV:  32    -0.620801104387E+03    0.19196E-04   -0.15174E-04 10368   0.972E-03    0.106E-01
DAV:  33    -0.620801076749E+03    0.27638E-04   -0.23901E-04 10464   0.117E-02    0.106E-01
DAV:  34    -0.620801074562E+03    0.21865E-05   -0.90286E-05 10272   0.786E-03    0.107E-01
DAV:  35    -0.620801105963E+03   -0.31400E-04   -0.40708E-05  8352   0.713E-03    0.105E-01
DAV:  36    -0.620801122311E+03   -0.16348E-04   -0.11143E-04  9504   0.855E-03    0.107E-01
DAV:  37    -0.620801129156E+03   -0.68454E-05   -0.13956E-03  9984   0.293E-02    0.127E-01
DAV:  38    -0.620801062527E+03    0.66630E-04   -0.11925E-03  9216   0.338E-02    0.110E-01
DAV:  39    -0.620801074643E+03   -0.12117E-04   -0.18217E-04 10560   0.129E-02    0.112E-01
DAV:  40    -0.620801051783E+03    0.22860E-04   -0.21626E-04 10896   0.111E-02    0.121E-01
DAV:  41    -0.620800917221E+03    0.13456E-03   -0.90158E-03  9648   0.790E-02    0.183E-01
DAV:  42    -0.620800563590E+03    0.35363E-03   -0.12875E-02  9456   0.102E-01    0.126E-01
DAV:  43    -0.620799580634E+03    0.98296E-03   -0.21306E-02 10320   0.122E-01    0.570E-01
DAV:  44    -0.620800218332E+03   -0.63770E-03   -0.17210E-02  9216   0.134E-01    0.865E-02
DAV:  45    -0.620799975231E+03    0.24310E-03   -0.17726E-02  9264   0.128E-01    0.527E-01
DAV:  46    -0.620800499239E+03   -0.52401E-03   -0.10667E-03  9648   0.538E-02    0.369E-01
DAV:  47    -0.620800168457E+03    0.33078E-03   -0.46532E-03  9936   0.627E-02    0.724E-01
DAV:  48    -0.620800074595E+03    0.93862E-04   -0.16369E-03  9216   0.541E-02    0.495E-01
DAV:  49    -0.620800060778E+03    0.13817E-04   -0.33181E-03  9216   0.553E-02    0.783E-01
DAV:  50    -0.620799843174E+03    0.21760E-03   -0.42109E-04  9216   0.328E-02    0.661E-01
DAV:  51    -0.620799888255E+03   -0.45081E-04   -0.83549E-04  9792   0.255E-02    0.787E-01
DAV:  52    -0.620799689973E+03    0.19828E-03   -0.55727E-04 10320   0.205E-02    0.907E-01
DAV:  53    -0.620799441656E+03    0.24832E-03   -0.39769E-05  8688   0.129E-02    0.903E-01
DAV:  54    -0.620799383004E+03    0.58653E-04   -0.44028E-05  8352   0.668E-03    0.866E-01
DAV:  55    -0.620799454137E+03   -0.71133E-04   -0.48518E-06  7776   0.412E-03    0.859E-01
DAV:  56    -0.620799471314E+03   -0.17177E-04   -0.67121E-07  6096   0.122E-03    0.854E-01
DAV:  57    -0.620799704377E+03   -0.23306E-03   -0.14541E-03  9744   0.368E-02    0.118E+00
DAV:  58    -0.620799187867E+03    0.51651E-03   -0.35466E-04  9216   0.276E-02    0.117E+00
DAV:  59    -0.620798963145E+03    0.22472E-03   -0.19121E-04  9264   0.130E-02    0.110E+00
DAV:  60    -0.620799086813E+03   -0.12367E-03   -0.13670E-04 10128   0.977E-03    0.105E+00
DAV:  61    -0.620799477498E+03   -0.39069E-03   -0.84220E-04  9648   0.325E-02    0.131E+00
DAV:  62    -0.620800084867E+03   -0.60737E-03   -0.11673E-02  9936   0.867E-02    0.217E+00
DAV:  63    -0.620798192706E+03    0.18922E-02   -0.16762E-03 10080   0.657E-02    0.247E+00
DAV:  64    -0.620796334153E+03    0.18586E-02   -0.52465E-04  9216   0.362E-02    0.233E+00
DAV:  65    -0.620795955768E+03    0.37838E-03   -0.17679E-04 10128   0.134E-02    0.218E+00
DAV:  66    -0.620796066472E+03   -0.11070E-03   -0.32047E-04  9408   0.186E-02    0.219E+00
DAV:  67    -0.620796113464E+03   -0.46993E-04   -0.28751E-04  9408   0.168E-02    0.207E+00
DAV:  68    -0.620796600085E+03   -0.48662E-03   -0.32185E-04  9408   0.202E-02    0.220E+00
DAV:  69    -0.620796323938E+03    0.27615E-03   -0.23919E-05  9600   0.833E-03    0.222E+00
DAV:  70    -0.620796177524E+03    0.14641E-03   -0.84904E-06  7872   0.409E-03    0.221E+00
DAV:  71    -0.620796214494E+03   -0.36970E-04   -0.78395E-07  6048   0.136E-03    0.221E+00
DAV:  72    -0.620796021835E+03    0.19266E-03   -0.82389E-04  9648   0.249E-02    0.200E+00
DAV:  73    -0.620796143929E+03   -0.12209E-03   -0.15224E-03  9984   0.306E-02    0.169E+00
DAV:  74    -0.620797055904E+03   -0.91198E-03   -0.40541E-04  9792   0.250E-02    0.156E+00
DAV:  75    -0.620797725999E+03   -0.67010E-03   -0.86622E-05  9216   0.158E-02    0.160E+00
DAV:  76    -0.620797946403E+03   -0.22040E-03   -0.18129E-04  9792   0.139E-02    0.173E+00
DAV:  77    -0.620797498871E+03    0.44753E-03   -0.77303E-05  9072   0.136E-02    0.168E+00
DAV:  78    -0.620797997523E+03   -0.49865E-03   -0.14254E-03  9504   0.322E-02    0.198E+00
DAV:  79    -0.620796753406E+03    0.12441E-02   -0.87302E-04  9408   0.360E-02    0.175E+00
DAV:  80    -0.620797243677E+03   -0.49027E-03   -0.66316E-05  9840   0.123E-02    0.176E+00
DAV:  81    -0.620797116389E+03    0.12729E-03   -0.31307E-04  9984   0.169E-02    0.161E+00
DAV:  82    -0.620796475238E+03    0.64115E-03   -0.39331E-02  9888   0.169E-01    0.308E-01
DAV:  83    -0.620799846252E+03   -0.33710E-02   -0.29446E-03  9264   0.923E-02    0.148E-01
DAV:  84    -0.620800665515E+03   -0.81926E-03   -0.48068E-04 10416   0.329E-02    0.685E-02
DAV:  85    -0.620800813569E+03   -0.14805E-03   -0.50922E-05  9888   0.142E-02    0.573E-02
DAV:  86    -0.620800891140E+03   -0.77571E-04   -0.15552E-04 10512   0.122E-02    0.788E-02
DAV:  87    -0.620800689198E+03    0.20194E-03   -0.11579E-03  9696   0.300E-02    0.139E-01
DAV:  88    -0.620800849407E+03   -0.16021E-03   -0.51613E-04  9264   0.240E-02    0.132E-01
DAV:  89    -0.620800860234E+03   -0.10827E-04   -0.34515E-05 10464   0.725E-03    0.133E-01
DAV:  90    -0.620800876596E+03   -0.16363E-04   -0.35584E-05  9264   0.503E-03
   3 F= -.62080088E+03 E0= -.62077547E+03  d E =-.439554E+01  mag=    11.0769
       N       E                     dE             d eps       ncg     rms          rms(c)
DAV:   1    -0.621002118725E+03   -0.20126E+00   -0.35676E+01  7680   0.843E+00    0.152E+00
DAV:   2    -0.621083763529E+03   -0.81645E-01   -0.82673E-01 11376   0.190E+00    0.399E+00
DAV:   3    -0.621058347517E+03    0.25416E-01   -0.96451E-02 12096   0.903E-01    0.106E+00
DAV:   4    -0.621060256075E+03   -0.19086E-02   -0.30325E-02 13680   0.306E-01    0.837E-01
DAV:   5    -0.621060245662E+03    0.10413E-04   -0.12078E-02 12336   0.243E-01    0.111E+00
DAV:   6    -0.621060058946E+03    0.18672E-03   -0.15844E-02 11664   0.219E-01    0.992E-01
DAV:   7    -0.621059083780E+03    0.97517E-03   -0.82066E-03 12480   0.173E-01    0.501E-01
DAV:   8    -0.621059572596E+03   -0.48882E-03   -0.37996E-03 11664   0.113E-01    0.184E-01
DAV:   9    -0.621060084064E+03   -0.51147E-03   -0.12806E-03 10944   0.555E-02    0.184E-01
DAV:  10    -0.621060557193E+03   -0.47313E-03   -0.40065E-04 13008   0.377E-02    0.978E-02
DAV:  11    -0.621061018000E+03   -0.46081E-03   -0.36698E-04 11088   0.257E-02    0.109E-01
DAV:  12    -0.621061256235E+03   -0.23824E-03   -0.20262E-04 12720   0.246E-02    0.761E-02
DAV:  13    -0.621061443756E+03   -0.18752E-03   -0.16703E-04 11136   0.165E-02    0.782E-02
DAV:  14    -0.621061596495E+03   -0.15274E-03   -0.85036E-05 11568   0.125E-02    0.506E-02
DAV:  15    -0.621061748505E+03   -0.15201E-03   -0.10366E-04 11520   0.115E-02    0.636E-02
DAV:  16    -0.621061914124E+03   -0.16562E-03   -0.26157E-04 10080   0.153E-02    0.573E-02
DAV:  17    -0.621062003425E+03   -0.89301E-04   -0.25484E-04 10800   0.171E-02    0.406E-02
DAV:  18    -0.621062016452E+03   -0.13027E-04   -0.14386E-04 11136   0.130E-02    0.364E-02
DAV:  19    -0.621062011652E+03    0.47997E-05   -0.11517E-04 10656   0.118E-02    0.206E-02
DAV:  20    -0.621062000930E+03    0.10722E-04   -0.82325E-05 10944   0.917E-03    0.306E-02
DAV:  21    -0.621062009995E+03   -0.90656E-05   -0.13306E-05 10176   0.551E-03    0.288E-02
DAV:  22    -0.621062019367E+03   -0.93713E-05   -0.54778E-06  9360   0.395E-03    0.168E-02
DAV:  23    -0.621062011762E+03    0.76047E-05   -0.25337E-05  9504   0.516E-03    0.856E-03
DAV:  24    -0.621061998794E+03    0.12968E-04   -0.33036E-05  9600   0.506E-03    0.868E-03
DAV:  25    -0.621061992366E+03    0.64284E-05   -0.16467E-05  8544   0.352E-03    0.676E-03
DAV:  26    -0.621061993171E+03   -0.80549E-06   -0.58114E-07  5856   0.164E-03
   4 F= -.62106199E+03 E0= -.62103522E+03  d E =-.465665E+01  mag=    10.9188
       N       E                     dE             d eps       ncg     rms          rms(c)
DAV:   1    -0.621170474947E+03   -0.10848E+00   -0.14265E+02  7680   0.168E+01    0.368E+00
DAV:   2    -0.621623361000E+03   -0.45289E+00   -0.45234E+00 11760   0.449E+00    0.865E+00
DAV:   3    -0.621447563329E+03    0.17580E+00   -0.55153E-01 12000   0.223E+00    0.456E+00
DAV:   4    -0.621428972455E+03    0.18591E-01   -0.97058E-01 14064   0.127E+00    0.406E+00
DAV:   5    -0.621399082587E+03    0.29890E-01   -0.22895E-01 11328   0.779E-01    0.156E+00
DAV:   6    -0.621406554265E+03   -0.74717E-02   -0.59410E-02 11952   0.511E-01    0.175E+00
DAV:   7    -0.621409392851E+03   -0.28386E-02   -0.34230E-02 12240   0.445E-01    0.194E+00
DAV:   8    -0.621408616915E+03    0.77594E-03   -0.25587E-02 12432   0.313E-01    0.141E+00
DAV:   9    -0.621404386136E+03    0.42308E-02   -0.10994E-02 12528   0.220E-01    0.632E-01
DAV:  10    -0.621405331715E+03   -0.94558E-03   -0.66519E-03 12528   0.131E-01    0.203E-01
DAV:  11    -0.621406704740E+03   -0.13730E-02   -0.18617E-03 11424   0.789E-02    0.232E-01
DAV:  12    -0.621407834022E+03   -0.11293E-02   -0.91456E-04 11856   0.484E-02    0.141E-01
DAV:  13    -0.621408764381E+03   -0.93036E-03   -0.75082E-04 12144   0.344E-02    0.160E-01
DAV:  14    -0.621409402101E+03   -0.63772E-03   -0.23925E-04 11088   0.250E-02    0.128E-01
DAV:  15    -0.621409894376E+03   -0.49227E-03   -0.31318E-04 11472   0.234E-02    0.831E-02
DAV:  16    -0.621410174293E+03   -0.27992E-03   -0.11777E-04 11232   0.161E-02    0.701E-02
DAV:  17    -0.621410440197E+03   -0.26590E-03   -0.98261E-05 11136   0.110E-02    0.714E-02
DAV:  18    -0.621410717466E+03   -0.27727E-03   -0.14903E-04 10896   0.129E-02    0.422E-02
DAV:  19    -0.621411009385E+03   -0.29192E-03   -0.19306E-04 10848   0.156E-02    0.534E-02
DAV:  20    -0.621411216951E+03   -0.20757E-03   -0.27447E-04 10224   0.151E-02    0.392E-02
DAV:  21    -0.621411273033E+03   -0.56082E-04   -0.48480E-04 10176   0.203E-02    0.604E-02
DAV:  22    -0.621411281684E+03   -0.86513E-05   -0.80983E-05 11520   0.119E-02    0.660E-02
DAV:  23    -0.621411297026E+03   -0.15342E-04   -0.50036E-05 11136   0.924E-03    0.490E-02
DAV:  24    -0.621411296945E+03    0.80880E-07   -0.28820E-05  9984   0.654E-03    0.174E-02
DAV:  25    -0.621411304318E+03   -0.73737E-05   -0.81459E-06  9168   0.413E-03    0.104E-02
DAV:  26    -0.621411310038E+03   -0.57190E-05   -0.42403E-06  7200   0.288E-03    0.629E-03
DAV:  27    -0.621411312405E+03   -0.23675E-05   -0.24343E-06  6768   0.195E-03    0.416E-03
DAV:  28    -0.621411313343E+03   -0.93759E-06   -0.19390E-06  6432   0.165E-03
   5 F= -.62141131E+03 E0= -.62138107E+03  d E =-.500597E+01  mag=    10.6416
       N       E                     dE             d eps       ncg     rms          rms(c)
DAV:   1    -0.620486852674E+03    0.92446E+00   -0.57006E+02  7680   0.335E+01    0.122E+01
DAV:   2    -0.625872176503E+03   -0.53853E+01   -0.69628E+01 12960   0.139E+01    0.409E+01
DAV:   3    -0.620899543052E+03    0.49726E+01   -0.49300E+01 11856   0.937E+00    0.939E+00
DAV:   4    -0.620972903448E+03   -0.73360E-01   -0.63479E+00 11232   0.301E+00    0.942E+00
DAV:   5    -0.621643470630E+03   -0.67057E+00   -0.83058E-01 11904   0.168E+00    0.106E+01
DAV:   6    -0.621755946722E+03   -0.11248E+00   -0.28599E-01 11664   0.111E+00    0.921E+00
DAV:   7    -0.621637116859E+03    0.11883E+00   -0.22439E-01 11424   0.119E+00    0.729E+00
DAV:   8    -0.621400257905E+03    0.23686E+00   -0.37362E-01 12384   0.168E+00    0.605E+00
DAV:   9    -0.621375828587E+03    0.24429E-01   -0.35843E-01 11040   0.850E-01    0.362E+00
DAV:  10    -0.621364054461E+03    0.11774E-01   -0.19569E-01 13536   0.765E-01    0.307E+00
DAV:  11    -0.621419874626E+03   -0.55820E-01   -0.86656E-02 12096   0.580E-01    0.402E+00
DAV:  12    -0.621438625332E+03   -0.18751E-01   -0.62185E-02 11568   0.500E-01    0.280E+00
DAV:  13    -0.621448813252E+03   -0.10188E-01   -0.48840E-02 11376   0.386E-01    0.150E+00
DAV:  14    -0.621459514422E+03   -0.10701E-01   -0.25477E-02 12048   0.300E-01    0.154E+00
DAV:  15    -0.621461692531E+03   -0.21781E-02   -0.18257E-02 11856   0.266E-01    0.704E-01
DAV:  16    -0.621464090317E+03   -0.23978E-02   -0.85788E-03 11280   0.163E-01    0.680E-01
DAV:  17    -0.621465933574E+03   -0.18433E-02   -0.34378E-03 12240   0.101E-01    0.526E-01
DAV:  18    -0.621468816441E+03   -0.28829E-02   -0.45561E-03 13008   0.115E-01    0.498E-01
DAV:  19    -0.621469937093E+03   -0.11207E-02   -0.18611E-03 12480   0.704E-02    0.437E-01
DAV:  20    -0.621470173369E+03   -0.23628E-03   -0.27856E-04 11328   0.288E-02    0.435E-01
DAV:  21    -0.621469546791E+03    0.62658E-03   -0.25015E-04 14112   0.277E-02    0.443E-01
DAV:  22    -0.621464459270E+03    0.50875E-02   -0.12397E-02 12576   0.214E-01    0.521E-01
DAV:  23    -0.621462548734E+03    0.19105E-02   -0.37549E-03 12576   0.111E-01    0.526E-01
DAV:  24    -0.621461360415E+03    0.11883E-02   -0.13409E-03 13392   0.578E-02    0.545E-01
DAV:  25    -0.621461366197E+03   -0.57828E-05   -0.13518E-04 10416   0.187E-02    0.537E-01
DAV:  26    -0.621462560722E+03   -0.11945E-02   -0.19759E-03 12528   0.611E-02    0.549E-01
DAV:  27    -0.621462514828E+03    0.45894E-04   -0.22481E-03 12048   0.682E-02    0.626E-01
DAV:  28    -0.621460515952E+03    0.19989E-02   -0.68578E-03 11952   0.125E-01    0.800E-01
DAV:  29    -0.621455933218E+03    0.45827E-02   -0.26575E-02 12336   0.324E-01    0.117E+00
DAV:  30    -0.621451601470E+03    0.43317E-02   -0.17800E-02 12528   0.228E-01    0.144E+00
DAV:  31    -0.621460349392E+03   -0.87479E-02   -0.58769E-02 12672   0.448E-01    0.996E-01
DAV:  32    -0.621471235900E+03   -0.10887E-01   -0.11647E-01 12576   0.514E-01    0.813E-01
DAV:  33    -0.621474707857E+03   -0.34720E-02   -0.96365E-03 12192   0.155E-01    0.852E-01
DAV:  34    -0.621470332881E+03    0.43750E-02   -0.32297E-02 13200   0.230E-01    0.788E-01
DAV:  35    -0.621470273250E+03    0.59630E-04   -0.13271E-02 12000   0.152E-01    0.901E-01
DAV:  36    -0.621470059609E+03    0.21364E-03   -0.31524E-03 12096   0.985E-02    0.909E-01
DAV:  37    -0.621470288804E+03   -0.22919E-03   -0.10493E-03 12432   0.547E-02    0.859E-01
DAV:  38    -0.621470236454E+03    0.52351E-04   -0.19746E-04 11760   0.219E-02    0.859E-01
DAV:  39    -0.621469275371E+03    0.96108E-03   -0.97412E-04 11376   0.400E-02    0.911E-01
DAV:  40    -0.621467964516E+03    0.13109E-02   -0.21721E-03 11520   0.731E-02    0.101E+00
DAV:  41    -0.621467981989E+03   -0.17473E-04   -0.23168E-03 12240   0.632E-02    0.104E+00
DAV:  42    -0.621468119284E+03   -0.13729E-03   -0.10646E-03 12288   0.478E-02    0.109E+00
DAV:  43    -0.621467512829E+03    0.60645E-03   -0.47591E-03 11616   0.912E-02    0.122E+00
DAV:  44    -0.621467130430E+03    0.38240E-03   -0.26485E-03 12000   0.788E-02    0.131E+00
DAV:  45    -0.621467801744E+03   -0.67131E-03   -0.51658E-03 10992   0.102E-01    0.122E+00
DAV:  46    -0.621467894574E+03   -0.92830E-04   -0.10636E-02 11184   0.135E-01    0.117E+00
DAV:  47    -0.621466484091E+03    0.14105E-02   -0.15586E-02 12240   0.196E-01    0.120E+00
DAV:  48    -0.621466670890E+03   -0.18680E-03   -0.13591E-03 10464   0.706E-02    0.119E+00
DAV:  49    -0.621465834316E+03    0.83657E-03   -0.26005E-03 12384   0.807E-02    0.133E+00
DAV:  50    -0.621464259779E+03    0.15745E-02   -0.16400E-02 11568   0.185E-01    0.153E+00
DAV:  51    -0.621459765843E+03    0.44939E-02   -0.32669E-02 12336   0.293E-01    0.187E+00
DAV:  52    -0.621463957087E+03   -0.41912E-02   -0.13584E-02 11856   0.212E-01    0.154E+00
DAV:  53    -0.621465594133E+03   -0.16370E-02   -0.69779E-03 12480   0.144E-01    0.148E+00
DAV:  54    -0.621468068327E+03   -0.24742E-02   -0.11853E-02 11712   0.174E-01    0.142E+00
DAV:  55    -0.621470617182E+03   -0.25489E-02   -0.94229E-03 12768   0.149E-01    0.134E+00
DAV:  56    -0.621471456204E+03   -0.83902E-03   -0.25473E-03 12384   0.749E-02    0.137E+00
DAV:  57    -0.621471183874E+03    0.27233E-03   -0.62029E-04 11664   0.468E-02    0.139E+00
DAV:  58    -0.621475297266E+03   -0.41134E-02   -0.21508E-02 12576   0.216E-01    0.129E+00
DAV:  59    -0.621475532174E+03   -0.23491E-03   -0.57278E-04 10800   0.381E-02    0.130E+00
DAV:  60    -0.621475388944E+03    0.14323E-03   -0.16985E-04 14544   0.189E-02    0.129E+00
DAV:  61    -0.621475445720E+03   -0.56776E-04   -0.95867E-06 10944   0.539E-03    0.129E+00
DAV:  62    -0.621474336931E+03    0.11088E-02   -0.97021E-04 12672   0.427E-02    0.132E+00
DAV:  63    -0.621474681881E+03   -0.34495E-03   -0.16219E-04 12288   0.202E-02    0.130E+00
DAV:  64    -0.621474828847E+03   -0.14697E-03   -0.23980E-05 11328   0.621E-03    0.130E+00
DAV:  65    -0.621474785927E+03    0.42920E-04   -0.55414E-05 10656   0.105E-02    0.131E+00
DAV:  66    -0.621474966824E+03   -0.18090E-03   -0.28894E-04 12576   0.308E-02    0.127E+00
DAV:  67    -0.621491914818E+03   -0.16948E-01   -0.22609E-01 12432   0.692E-01    0.132E+00
DAV:  68    -0.621495477161E+03   -0.35623E-02   -0.15806E-02 11328   0.176E-01    0.143E+00
DAV:  69    -0.621495097999E+03    0.37916E-03   -0.77925E-04 12912   0.445E-02    0.142E+00
DAV:  70    -0.621495729017E+03   -0.63102E-03   -0.48145E-04 12816   0.300E-02    0.144E+00
DAV:  71    -0.621495319851E+03    0.40917E-03   -0.97431E-05 13680   0.136E-02    0.141E+00
DAV:  72    -0.621488397948E+03    0.69219E-02   -0.36349E-02 11328   0.207E-01    0.105E+00
DAV:  73    -0.621492888107E+03   -0.44902E-02   -0.10902E-02 11328   0.138E-01    0.122E+00
DAV:  74    -0.621495244425E+03   -0.23563E-02   -0.38011E-03 12192   0.851E-02    0.132E+00
DAV:  75    -0.621493370265E+03    0.18742E-02   -0.17804E-03 12000   0.578E-02    0.124E+00
DAV:  76    -0.621493066660E+03    0.30361E-03   -0.13024E-04 11472   0.172E-02    0.122E+00
DAV:  77    -0.621499941253E+03   -0.68746E-02   -0.37806E-02 11136   0.241E-01    0.162E+00
DAV:  78    -0.621499573565E+03    0.36769E-03   -0.10975E-03 10704   0.584E-02    0.159E+00
DAV:  79    -0.621500486319E+03   -0.91275E-03   -0.10497E-03 12864   0.370E-02    0.166E+00
DAV:  80    -0.621498909751E+03    0.15766E-02   -0.19569E-03 11904   0.690E-02    0.161E+00
DAV:  81    -0.621500502175E+03   -0.15924E-02   -0.12000E-03 12192   0.637E-02    0.166E+00
DAV:  82    -0.621490950610E+03    0.95516E-02   -0.63505E-02 10992   0.266E-01    0.108E+00
DAV:  83    -0.621498479065E+03   -0.75285E-02   -0.34749E-02 11328   0.236E-01    0.143E+00
DAV:  84    -0.621505737214E+03   -0.72581E-02   -0.39333E-02 11760   0.256E-01    0.184E+00
DAV:  85    -0.621502204488E+03    0.35327E-02   -0.44854E-03 11424   0.952E-02    0.168E+00
DAV:  86    -0.621499975037E+03    0.22295E-02   -0.29987E-03 11568   0.576E-02    0.155E+00
DAV:  87    -0.621493232106E+03    0.67429E-02   -0.25264E-02 11280   0.176E-01    0.117E+00
DAV:  88    -0.621493837739E+03   -0.60563E-03   -0.12435E-03 11568   0.529E-02    0.115E+00
DAV:  89    -0.621496140461E+03   -0.23027E-02   -0.32694E-03 11808   0.814E-02    0.125E+00
DAV:  90    -0.621495797076E+03    0.34339E-03   -0.10046E-04 11184   0.189E-02
   6 F= -.62149580E+03 E0= -.62145443E+03  d E =-.509046E+01  mag=    10.0759
       N       E                     dE             d eps       ncg     rms          rms(c)
DAV:   1    -0.621424244000E+03    0.71896E-01   -0.64752E+01  7680   0.112E+01    0.263E+00
DAV:   2    -0.621742481685E+03   -0.31824E+00   -0.33122E+00 11760   0.292E+00    0.119E+01
DAV:   3    -0.621510896558E+03    0.23159E+00   -0.18501E+00 12624   0.185E+00    0.241E+00
DAV:   4    -0.621535729214E+03   -0.24833E-01   -0.11211E-01 11376   0.678E-01    0.154E+00
DAV:   5    -0.621534462929E+03    0.12663E-02   -0.58572E-02 12624   0.506E-01    0.248E+00
DAV:   6    -0.621535267640E+03   -0.80471E-03   -0.27434E-02 12672   0.371E-01    0.215E+00
DAV:   7    -0.621533389112E+03    0.18785E-02   -0.38945E-02 11520   0.310E-01    0.163E+00
DAV:   8    -0.621531361212E+03    0.20279E-02   -0.20488E-02 12480   0.264E-01    0.486E-01
DAV:   9    -0.621532942108E+03   -0.15809E-02   -0.64440E-03 12192   0.150E-01    0.309E-01
DAV:  10    -0.621533449551E+03   -0.50744E-03   -0.22824E-03 13344   0.848E-02    0.231E-01
DAV:  11    -0.621533946056E+03   -0.49651E-03   -0.89003E-04 12480   0.537E-02    0.176E-01
DAV:  12    -0.621534230701E+03   -0.28465E-03   -0.73067E-04 12672   0.456E-02    0.154E-01
DAV:  13    -0.621534616166E+03   -0.38547E-03   -0.85506E-04 12240   0.476E-02    0.177E-01
DAV:  14    -0.621534940307E+03   -0.32414E-03   -0.60230E-04 11568   0.432E-02    0.241E-01
DAV:  15    -0.621535069732E+03   -0.12942E-03   -0.37585E-04 11808   0.302E-02    0.205E-01
DAV:  16    -0.621535212016E+03   -0.14228E-03   -0.27076E-04 12000   0.267E-02    0.179E-01
DAV:  17    -0.621535469983E+03   -0.25797E-03   -0.70745E-04 12048   0.423E-02    0.174E-01
DAV:  18    -0.621535777333E+03   -0.30735E-03   -0.11516E-03 11520   0.583E-02    0.176E-01
DAV:  19    -0.621536110794E+03   -0.33346E-03   -0.17410E-03 12048   0.715E-02    0.163E-01
DAV:  20    -0.621536575856E+03   -0.46506E-03   -0.31391E-03 12000   0.984E-02    0.172E-01
DAV:  21    -0.621537023683E+03   -0.44783E-03   -0.31530E-03 12240   0.962E-02    0.155E-01
DAV:  22    -0.621537417340E+03   -0.39366E-03   -0.28072E-03 12288   0.933E-02    0.129E-01
DAV:  23    -0.621537945956E+03   -0.52862E-03   -0.83079E-03 12336   0.165E-01    0.118E-01
DAV:  24    -0.621538306964E+03   -0.36101E-03   -0.56423E-03 12768   0.120E-01    0.105E-01
DAV:  25    -0.621538447703E+03   -0.14074E-03   -0.61185E-04 10560   0.412E-02    0.869E-02
DAV:  26    -0.621538498471E+03   -0.50768E-04   -0.25913E-04 14640   0.307E-02    0.477E-02
DAV:  27    -0.621538593910E+03   -0.95439E-04   -0.84065E-04 12480   0.468E-02    0.493E-02
DAV:  28    -0.621538630665E+03   -0.36755E-04   -0.11988E-03 12480   0.674E-02    0.384E-02
DAV:  29    -0.621538668983E+03   -0.38318E-04   -0.13482E-04 12144   0.306E-02    0.339E-02
DAV:  30    -0.621538669670E+03   -0.68689E-06   -0.45087E-04 12960   0.455E-02    0.195E-02
DAV:  31    -0.621538681776E+03   -0.12106E-04   -0.33073E-04 12672   0.438E-02    0.243E-02
DAV:  32    -0.621538696909E+03   -0.15133E-04   -0.31785E-05 11472   0.999E-03    0.208E-02
DAV:  33    -0.621538701571E+03   -0.46623E-05   -0.93074E-05 12240   0.200E-02    0.160E-02
DAV:  34    -0.621538705558E+03   -0.39867E-05   -0.95350E-05 12768   0.239E-02    0.211E-02
DAV:  35    -0.621538711024E+03   -0.54660E-05   -0.22937E-04 11904   0.301E-02    0.167E-02
DAV:  36    -0.621538713699E+03   -0.26755E-05   -0.77406E-05 11712   0.176E-02    0.144E-02
DAV:  37    -0.621538709147E+03    0.45522E-05   -0.18372E-04 11616   0.236E-02    0.138E-02
DAV:  38    -0.621538712062E+03   -0.29148E-05   -0.38469E-05 11856   0.141E-02    0.105E-02
DAV:  39    -0.621538717094E+03   -0.50323E-05   -0.15173E-05 10800   0.964E-03    0.857E-03
DAV:  40    -0.621538718303E+03   -0.12086E-05   -0.19579E-06  7824   0.294E-03    0.662E-03
DAV:  41    -0.621538717257E+03    0.10455E-05   -0.35816E-06  8160   0.403E-03    0.476E-03
DAV:  42    -0.621538718309E+03   -0.10516E-05   -0.13428E-05  9360   0.754E-03    0.464E-03
DAV:  43    -0.621538719262E+03   -0.95305E-06   -0.11803E-06  6624   0.276E-03
   7 F= -.62153872E+03 E0= -.62150031E+03  d E =-.513338E+01  mag=    10.2424
       N       E                     dE             d eps       ncg     rms          rms(c)
DAV:   1    -0.621203949096E+03    0.33477E+00   -0.64454E+02  7680   0.362E+01    0.503E+00
DAV:   2    -0.623054149677E+03   -0.18502E+01   -0.18563E+01 11232   0.807E+00    0.107E+01
DAV:   3    -0.622695908178E+03    0.35824E+00   -0.13676E+00 12048   0.319E+00    0.562E+00
DAV:   4    -0.622678206103E+03    0.17702E-01   -0.18652E+00 13008   0.169E+00    0.511E+00
DAV:   5    -0.622636619136E+03    0.41587E-01   -0.52392E-01 12624   0.117E+00    0.307E+00
DAV:   6    -0.622658791898E+03   -0.22173E-01   -0.14346E-01 12432   0.732E-01    0.436E+00
DAV:   7    -0.622624674726E+03    0.34117E-01   -0.10719E-01 12144   0.775E-01    0.202E+00
DAV:   8    -0.622625203837E+03   -0.52911E-03   -0.13390E-01 12000   0.613E-01    0.140E+00
DAV:   9    -0.622627724496E+03   -0.25207E-02   -0.41160E-02 12768   0.335E-01    0.129E+00
DAV:  10    -0.622625771281E+03    0.19532E-02   -0.13442E-02 12576   0.198E-01    0.820E-01
DAV:  11    -0.622626341316E+03   -0.57004E-03   -0.55178E-03 11568   0.118E-01    0.573E-01
DAV:  12    -0.622626818786E+03   -0.47747E-03   -0.24529E-03 13680   0.107E-01    0.322E-01
DAV:  13    -0.622627661625E+03   -0.84284E-03   -0.31864E-03 13104   0.924E-02    0.271E-01
DAV:  14    -0.622628495815E+03   -0.83419E-03   -0.20628E-03 11952   0.806E-02    0.240E-01
DAV:  15    -0.622629168476E+03   -0.67266E-03   -0.11779E-03 12096   0.570E-02    0.283E-01
DAV:  16    -0.622628975237E+03    0.19324E-03   -0.34275E-04 12048   0.389E-02    0.326E-01
DAV:  17    -0.622628015653E+03    0.95958E-03   -0.20872E-03 12864   0.913E-02    0.371E-01
DAV:  18    -0.622627287665E+03    0.72799E-03   -0.12280E-03 12672   0.630E-02    0.319E-01
DAV:  19    -0.622626566583E+03    0.72108E-03   -0.15209E-03 12432   0.727E-02    0.329E-01
DAV:  20    -0.622626582690E+03   -0.16107E-04   -0.15334E-04  9552   0.219E-02    0.328E-01
DAV:  21    -0.622628270297E+03   -0.16876E-02   -0.69561E-03 12624   0.163E-01    0.355E-01
DAV:  22    -0.622629319706E+03   -0.10494E-02   -0.34588E-03 13248   0.118E-01    0.306E-01
DAV:  23    -0.622629925335E+03   -0.60563E-03   -0.97541E-04 12912   0.518E-02    0.324E-01
DAV:  24    -0.622628665888E+03    0.12594E-02   -0.46723E-03 13104   0.168E-01    0.333E-01
DAV:  25    -0.622628591265E+03    0.74623E-04   -0.51083E-04 11184   0.363E-02    0.329E-01
DAV:  26    -0.622628579043E+03    0.12222E-04   -0.42434E-05 12240   0.948E-03    0.326E-01
DAV:  27    -0.622628832446E+03   -0.25340E-03   -0.18575E-04 12816   0.291E-02    0.320E-01
DAV:  28    -0.622628764515E+03    0.67931E-04   -0.27058E-05 11136   0.113E-02    0.319E-01
DAV:  29    -0.622628963327E+03   -0.19881E-03   -0.28109E-04 13104   0.318E-02    0.355E-01
DAV:  30    -0.622628809344E+03    0.15398E-03   -0.86384E-04 12720   0.491E-02    0.352E-01
DAV:  31    -0.622628721345E+03    0.87999E-04   -0.64543E-04 12768   0.434E-02    0.369E-01
DAV:  32    -0.622628706293E+03    0.15052E-04   -0.12288E-03 13536   0.647E-02    0.344E-01
DAV:  33    -0.622628628288E+03    0.78005E-04   -0.90451E-05 10848   0.160E-02    0.343E-01
DAV:  34    -0.622627708906E+03    0.91938E-03   -0.20145E-03 12768   0.791E-02    0.325E-01
DAV:  35    -0.622625325247E+03    0.23837E-02   -0.11190E-02 12816   0.211E-01    0.368E-01
DAV:  36    -0.622626524572E+03   -0.11993E-02   -0.32974E-03 13296   0.112E-01    0.392E-01
DAV:  37    -0.622628853997E+03   -0.23294E-02   -0.23416E-02 12384   0.259E-01    0.500E-01
DAV:  38    -0.622625400026E+03    0.34540E-02   -0.34722E-02 13296   0.358E-01    0.443E-01
DAV:  39    -0.622622190591E+03    0.32094E-02   -0.41725E-02 12960   0.415E-01    0.615E-01
DAV:  40    -0.622628287203E+03   -0.60966E-02   -0.10938E-01 13296   0.665E-01    0.509E-01
DAV:  41    -0.622636915312E+03   -0.86281E-02   -0.17584E-01 13152   0.702E-01    0.831E-01
DAV:  42    -0.622631134876E+03    0.57804E-02   -0.72394E-02 13344   0.457E-01    0.473E-01
DAV:  43    -0.622630362824E+03    0.77205E-03   -0.10990E-02 12144   0.181E-01    0.447E-01
DAV:  44    -0.622626969179E+03    0.33936E-02   -0.39524E-02 12576   0.368E-01    0.460E-01
DAV:  45    -0.622626219452E+03    0.74973E-03   -0.12517E-02 12384   0.185E-01    0.524E-01
DAV:  46    -0.622626533503E+03   -0.31405E-03   -0.91726E-04 10656   0.508E-02    0.513E-01
DAV:  47    -0.622626206904E+03    0.32660E-03   -0.55614E-04 14352   0.419E-02    0.524E-01
DAV:  48    -0.622625941013E+03    0.26589E-03   -0.53410E-04 12864   0.420E-02    0.514E-01
DAV:  49    -0.622625570009E+03    0.37100E-03   -0.97581E-04 12960   0.555E-02    0.498E-01
DAV:  50    -0.622624725495E+03    0.84451E-03   -0.29027E-03 12720   0.993E-02    0.509E-01
DAV:  51    -0.622624991198E+03   -0.26570E-03   -0.11527E-03 13392   0.697E-02    0.529E-01
DAV:  52    -0.622626469265E+03   -0.14781E-02   -0.93985E-03 12864   0.184E-01    0.541E-01
DAV:  53    -0.622628809137E+03   -0.23399E-02   -0.16532E-02 12912   0.218E-01    0.589E-01
DAV:  54    -0.622631099099E+03   -0.22900E-02   -0.10484E-02 13008   0.144E-01    0.712E-01
DAV:  55    -0.622630348736E+03    0.75036E-03   -0.18557E-03 12576   0.953E-02    0.723E-01
DAV:  56    -0.622630547946E+03   -0.19921E-03   -0.62783E-04 12528   0.504E-02    0.683E-01
DAV:  57    -0.622629542792E+03    0.10052E-02   -0.41311E-03 12960   0.967E-02    0.576E-01
DAV:  58    -0.622630125466E+03   -0.58267E-03   -0.23222E-03 12576   0.833E-02    0.532E-01
DAV:  59    -0.622629680850E+03    0.44462E-03   -0.71057E-03 12672   0.132E-01    0.458E-01
DAV:  60    -0.622630466936E+03   -0.78609E-03   -0.26440E-03 12528   0.836E-02    0.462E-01
DAV:  61    -0.622631061794E+03   -0.59486E-03   -0.10281E-03 12768   0.505E-02    0.483E-01
DAV:  62    -0.622628591384E+03    0.24704E-02   -0.17002E-02 13008   0.256E-01    0.469E-01
DAV:  63    -0.622628559768E+03    0.31616E-04   -0.97850E-04 11328   0.458E-02    0.473E-01
DAV:  64    -0.622629698202E+03   -0.11384E-02   -0.68914E-03 12720   0.167E-01    0.464E-01
DAV:  65    -0.622630495117E+03   -0.79692E-03   -0.34933E-03 12720   0.107E-01    0.467E-01
DAV:  66    -0.622630457512E+03    0.37605E-04   -0.25020E-04 11328   0.260E-02    0.466E-01
DAV:  67    -0.622630071179E+03    0.38633E-03   -0.11846E-03 12816   0.539E-02    0.472E-01
DAV:  68    -0.622629713089E+03    0.35809E-03   -0.42877E-04 12144   0.282E-02    0.449E-01
DAV:  69    -0.622629581827E+03    0.13126E-03   -0.14395E-03 12288   0.535E-02    0.433E-01
DAV:  70    -0.622630217132E+03   -0.63531E-03   -0.60456E-03 12480   0.118E-01    0.446E-01
DAV:  71    -0.622630027280E+03    0.18985E-03   -0.46371E-04 12192   0.370E-02    0.433E-01
DAV:  72    -0.622628317372E+03    0.17099E-02   -0.95439E-03 12432   0.155E-01    0.363E-01
DAV:  73    -0.622626321825E+03    0.19955E-02   -0.19985E-02 12768   0.264E-01    0.378E-01
DAV:  74    -0.622624758769E+03    0.15631E-02   -0.14128E-02 13152   0.224E-01    0.430E-01
DAV:  75    -0.622624947987E+03   -0.18922E-03   -0.10598E-03 10416   0.510E-02    0.430E-01
DAV:  76    -0.622625010306E+03   -0.62320E-04   -0.13003E-04 14736   0.152E-02    0.430E-01
DAV:  77    -0.622624893656E+03    0.11665E-03   -0.69055E-05 13008   0.163E-02    0.432E-01
DAV:  78    -0.622625002568E+03   -0.10891E-03   -0.13011E-04 13056   0.179E-02    0.437E-01
DAV:  79    -0.622625032138E+03   -0.29570E-04   -0.37373E-05 12720   0.100E-02    0.437E-01
DAV:  80    -0.622624979347E+03    0.52791E-04   -0.21769E-05 11904   0.962E-03    0.439E-01
DAV:  81    -0.622625356422E+03   -0.37708E-03   -0.72034E-04 12528   0.530E-02    0.427E-01
DAV:  82    -0.622624612278E+03    0.74414E-03   -0.18231E-03 12576   0.802E-02    0.444E-01
DAV:  83    -0.622624103502E+03    0.50878E-03   -0.97145E-04 13056   0.582E-02    0.460E-01
DAV:  84    -0.622624412834E+03   -0.30933E-03   -0.24062E-04 12912   0.320E-02    0.454E-01
DAV:  85    -0.622624843512E+03   -0.43068E-03   -0.61047E-04 12864   0.466E-02    0.443E-01
DAV:  86    -0.622625878415E+03   -0.10349E-02   -0.30836E-03 12240   0.962E-02    0.439E-01
DAV:  87    -0.622630823324E+03   -0.49449E-02   -0.99606E-02 12624   0.577E-01    0.534E-01
DAV:  88    -0.622630588389E+03    0.23493E-03   -0.58963E-03 11952   0.150E-01    0.494E-01
DAV:  89    -0.622628480896E+03    0.21075E-02   -0.13345E-02 12384   0.205E-01    0.445E-01
DAV:  90    -0.622627261418E+03    0.12195E-02   -0.65233E-03 12432   0.145E-01
   8 F= -.62262726E+03 E0= -.62259314E+03  d E =-.108854E+01  mag=    10.2235
       N       E                     dE             d eps       ncg     rms          rms(c)
DAV:   1    -0.622227786495E+03    0.40069E+00   -0.32663E+02  7680   0.257E+01    0.357E+00
DAV:   2    -0.623172852608E+03   -0.94507E+00   -0.89919E+00 11040   0.543E+00    0.941E+00
DAV:   3    -0.622925751929E+03    0.24710E+00   -0.75324E-01 11856   0.222E+00    0.381E+00
DAV:   4    -0.622922800606E+03    0.29513E-02   -0.60680E-01 12768   0.961E-01    0.306E+00
DAV:   5    -0.622922064528E+03    0.73608E-03   -0.32654E-01 12720   0.738E-01    0.313E+00
DAV:   6    -0.622959534301E+03   -0.37470E-01   -0.84417E-02 12432   0.610E-01    0.489E+00
DAV:   7    -0.622910594020E+03    0.48940E-01   -0.11638E-01 13008   0.789E-01    0.153E+00
DAV:   8    -0.622921548984E+03   -0.10955E-01   -0.87384E-02 12048   0.483E-01    0.109E+00
DAV:   9    -0.622929951556E+03   -0.84026E-02   -0.32623E-02 12000   0.317E-01    0.134E+00
DAV:  10    -0.622929193592E+03    0.75796E-03   -0.39378E-03 11088   0.114E-01    0.141E+00
DAV:  11    -0.622929116648E+03    0.76944E-04   -0.52666E-02 11376   0.549E-01    0.208E+00
DAV:  12    -0.622928907898E+03    0.20875E-03   -0.64364E-03 10224   0.125E-01    0.209E+00
DAV:  13    -0.622928589321E+03    0.31858E-03   -0.51682E-04 14976   0.328E-02    0.210E+00
DAV:  14    -0.622928514068E+03    0.75253E-04   -0.41618E-05 13248   0.718E-03    0.210E+00
DAV:  15    -0.622928659190E+03   -0.14512E-03   -0.58410E-05 14304   0.185E-02    0.212E+00
DAV:  16    -0.622929492060E+03   -0.83287E-03   -0.16776E-03 13680   0.907E-02    0.207E+00
DAV:  17    -0.622930642794E+03   -0.11507E-02   -0.14026E-03 13008   0.776E-02    0.210E+00
DAV:  18    -0.622916885354E+03    0.13757E-01   -0.72904E-02 13248   0.520E-01    0.203E+00
DAV:  19    -0.622904024122E+03    0.12861E-01   -0.52796E-02 13440   0.388E-01    0.230E+00
DAV:  20    -0.622883402704E+03    0.20621E-01   -0.74557E-02 13440   0.451E-01    0.303E+00
DAV:  21    -0.622868652540E+03    0.14750E-01   -0.23748E-02 12768   0.222E-01    0.332E+00
DAV:  22    -0.622856773755E+03    0.11879E-01   -0.14867E-02 12768   0.213E-01    0.373E+00
DAV:  23    -0.622856665149E+03    0.10861E-03   -0.17114E-03  9840   0.729E-02    0.373E+00
DAV:  24    -0.622855549385E+03    0.11158E-02   -0.65507E-04 15072   0.302E-02    0.375E+00
DAV:  25    -0.622858846850E+03   -0.32975E-02   -0.34081E-03 13344   0.773E-02    0.363E+00
DAV:  26    -0.622867297089E+03   -0.84502E-02   -0.14794E-02 13056   0.179E-01    0.347E+00
DAV:  27    -0.622891814470E+03   -0.24517E-01   -0.10973E-01 12624   0.526E-01    0.211E+00
DAV:  28    -0.622901967292E+03   -0.10153E-01   -0.39942E-02 13440   0.325E-01    0.147E+00
DAV:  29    -0.622902038177E+03   -0.70885E-04   -0.12326E-02 13296   0.170E-01    0.137E+00
DAV:  30    -0.622903468590E+03   -0.14304E-02   -0.43153E-03 13152   0.947E-02    0.126E+00
DAV:  31    -0.622903467553E+03    0.10370E-05   -0.86179E-03 13296   0.172E-01    0.140E+00
DAV:  32    -0.622902933449E+03    0.53410E-03   -0.24520E-03 12000   0.837E-02    0.142E+00
DAV:  33    -0.622902230803E+03    0.70265E-03   -0.10006E-03 13344   0.502E-02    0.145E+00
DAV:  34    -0.622900418926E+03    0.18119E-02   -0.40864E-03 12816   0.915E-02    0.147E+00
DAV:  35    -0.622899349185E+03    0.10697E-02   -0.19552E-03 12624   0.624E-02    0.151E+00
DAV:  36    -0.622898355194E+03    0.99399E-03   -0.29787E-03 12912   0.753E-02    0.147E+00
DAV:  37    -0.622893396898E+03    0.49583E-02   -0.57913E-02 12768   0.373E-01    0.126E+00
DAV:  38    -0.622881018594E+03    0.12378E-01   -0.94331E-02 12912   0.548E-01    0.134E+00
DAV:  39    -0.622887326620E+03   -0.63080E-02   -0.10247E-02 12672   0.225E-01    0.125E+00
DAV:  40    -0.622882351740E+03    0.49749E-02   -0.87337E-03 14016   0.171E-01    0.132E+00
DAV:  41    -0.622886098521E+03   -0.37468E-02   -0.64562E-03 13344   0.174E-01    0.119E+00
DAV:  42    -0.622897675943E+03   -0.11577E-01   -0.13958E-01 12768   0.651E-01    0.902E-01
DAV:  43    -0.622979282021E+03   -0.81606E-01   -0.12242E+00 13104   0.122E+00    0.533E+00
DAV:  44    -0.622984443272E+03   -0.51613E-02   -0.26941E-02 10320   0.263E-01    0.554E+00
DAV:  45    -0.622971863557E+03    0.12580E-01   -0.48754E-03 14256   0.782E-02    0.503E+00
DAV:  46    -0.622981589882E+03   -0.97263E-02   -0.53493E-03 14208   0.102E-01    0.548E+00
DAV:  47    -0.622977567523E+03    0.40224E-02   -0.28342E-03 12240   0.115E-01    0.530E+00
DAV:  48    -0.622952596595E+03    0.24971E-01   -0.30499E-02 13488   0.145E-01    0.396E+00
DAV:  49    -0.622976432387E+03   -0.23836E-01   -0.27934E-02 11952   0.178E-01    0.510E+00
DAV:  50    -0.622978065019E+03   -0.16326E-02   -0.10023E-03 11904   0.503E-02    0.526E+00
DAV:  51    -0.622965308987E+03    0.12756E-01   -0.69977E-03 13200   0.788E-02    0.466E+00
DAV:  52    -0.622963954453E+03    0.13545E-02   -0.26430E-03 12720   0.856E-02    0.457E+00
DAV:  53    -0.622954951272E+03    0.90032E-02   -0.41655E-03 12336   0.630E-02    0.406E+00
DAV:  54    -0.622973996463E+03   -0.19045E-01   -0.39619E-02 11664   0.301E-01    0.503E+00
DAV:  55    -0.622969079727E+03    0.49167E-02   -0.20219E-03 11136   0.717E-02    0.487E+00
DAV:  56    -0.622961605834E+03    0.74739E-02   -0.26156E-03 14016   0.477E-02    0.451E+00
DAV:  57    -0.622953611498E+03    0.79943E-02   -0.14913E-02 13344   0.189E-01    0.424E+00
DAV:  58    -0.622942107643E+03    0.11504E-01   -0.10974E-02 12624   0.932E-02    0.352E+00
DAV:  59    -0.622922295589E+03    0.19812E-01   -0.52179E-02 12384   0.157E-01    0.216E+00
DAV:  60    -0.622919634982E+03    0.26606E-02   -0.68909E-03 11760   0.885E-02    0.180E+00
DAV:  61    -0.622921822709E+03   -0.21877E-02   -0.45907E-03 11760   0.102E-01    0.204E+00
DAV:  62    -0.622912920392E+03    0.89023E-02   -0.15206E-02 12864   0.136E-01    0.157E+00
DAV:  63    -0.622913044705E+03   -0.12431E-03   -0.25014E-03 12480   0.869E-02    0.156E+00
DAV:  64    -0.622911756464E+03    0.12882E-02   -0.14408E-03 13152   0.530E-02    0.148E+00
DAV:  65    -0.622914282556E+03   -0.25261E-02   -0.23039E-03 12096   0.911E-02    0.162E+00
DAV:  66    -0.622915622362E+03   -0.13398E-02   -0.23582E-03 12480   0.101E-01    0.171E+00
DAV:  67    -0.622925757906E+03   -0.10136E-01   -0.70944E-02 12240   0.606E-01    0.246E+00
DAV:  68    -0.622927311043E+03   -0.15531E-02   -0.69505E-03 10704   0.129E-01    0.255E+00
DAV:  69    -0.622927206973E+03    0.10407E-03   -0.68798E-04 14016   0.355E-02    0.256E+00
DAV:  70    -0.622926919869E+03    0.28710E-03   -0.16323E-04 13824   0.215E-02    0.252E+00
DAV:  71    -0.622927251818E+03   -0.33195E-03   -0.12047E-04 13344   0.213E-02    0.251E+00
DAV:  72    -0.622923736156E+03    0.35157E-02   -0.68278E-03 12672   0.113E-01    0.214E+00
DAV:  73    -0.622922208915E+03    0.15272E-02   -0.69535E-03 13104   0.130E-01    0.186E+00
DAV:  74    -0.622922700872E+03   -0.49196E-03   -0.13081E-03 13152   0.605E-02    0.182E+00
DAV:  75    -0.622922140987E+03    0.55988E-03   -0.35277E-04 11760   0.260E-02    0.178E+00
DAV:  76    -0.622922506804E+03   -0.36582E-03   -0.20392E-04 13680   0.194E-02    0.179E+00
DAV:  77    -0.622923108683E+03   -0.60188E-03   -0.70379E-04 12432   0.524E-02    0.182E+00
DAV:  78    -0.622922629866E+03    0.47882E-03   -0.11842E-04 11808   0.145E-02    0.179E+00
DAV:  79    -0.622922707412E+03   -0.77546E-04   -0.77797E-06 10416   0.509E-03    0.179E+00
DAV:  80    -0.622922292469E+03    0.41494E-03   -0.33475E-05  8208   0.570E-03    0.176E+00
DAV:  81    -0.622920101230E+03    0.21912E-02   -0.14854E-03 12768   0.430E-02    0.163E+00
DAV:  82    -0.622916045902E+03    0.40553E-02   -0.73053E-03 12720   0.113E-01    0.145E+00
DAV:  83    -0.622915833964E+03    0.21194E-03   -0.23672E-04 12288   0.278E-02    0.144E+00
DAV:  84    -0.622916128615E+03   -0.29465E-03   -0.39881E-05 12672   0.147E-02    0.144E+00
DAV:  85    -0.622916445461E+03   -0.31685E-03   -0.35179E-05 12720   0.965E-03    0.146E+00
DAV:  86    -0.622916594929E+03   -0.14947E-03   -0.42855E-05 12384   0.114E-02    0.145E+00
DAV:  87    -0.622909921179E+03    0.66737E-02   -0.46257E-02 12816   0.333E-01    0.145E+00
DAV:  88    -0.622910318360E+03   -0.39718E-03   -0.11712E-02 13200   0.164E-01    0.120E+00
DAV:  89    -0.622911030548E+03   -0.71219E-03   -0.32705E-03 12432   0.785E-02    0.116E+00
DAV:  90    -0.622909313914E+03    0.17166E-02   -0.22610E-03 12960   0.764E-02
   9 F= -.62290931E+03 E0= -.62287247E+03  d E =-.137059E+01  mag=    10.2107
       N       E                     dE             d eps       ncg     rms          rms(c)
DAV:   1    -0.622231760080E+03    0.67927E+00   -0.52725E+02  7680   0.328E+01    0.664E+00
DAV:   2    -0.624176489232E+03   -0.19447E+01   -0.21297E+01 12144   0.848E+00    0.122E+01
DAV:   3    -0.623610251572E+03    0.56624E+00   -0.22647E+00 13440   0.373E+00    0.473E+00
DAV:   4    -0.623604479463E+03    0.57721E-02   -0.64006E-01 11904   0.127E+00    0.421E+00
DAV:   5    -0.623605087149E+03   -0.60769E-03   -0.26347E-01 12672   0.911E-01    0.448E+00
DAV:   6    -0.623647880771E+03   -0.42794E-01   -0.20016E-01 12336   0.866E-01    0.479E+00
DAV:   7    -0.623600643148E+03    0.47238E-01   -0.73251E-01 12864   0.136E+00    0.268E+00
DAV:   8    -0.623608272920E+03   -0.76298E-02   -0.12684E-01 11712   0.684E-01    0.208E+00
DAV:   9    -0.623600233048E+03    0.80399E-02   -0.45344E-02 12528   0.372E-01    0.115E+00
DAV:  10    -0.623601245668E+03   -0.10126E-02   -0.21106E-02 12576   0.217E-01    0.499E-01
DAV:  11    -0.623602883379E+03   -0.16377E-02   -0.47843E-03 12192   0.124E-01    0.416E-01
DAV:  12    -0.623603341821E+03   -0.45844E-03   -0.40626E-03 12480   0.925E-02    0.383E-01
DAV:  13    -0.623603778399E+03   -0.43658E-03   -0.19524E-03 13200   0.751E-02    0.240E-01
DAV:  14    -0.623604272038E+03   -0.49364E-03   -0.21729E-03 12096   0.764E-02    0.247E-01
DAV:  15    -0.623604643974E+03   -0.37194E-03   -0.10595E-03 12384   0.504E-02    0.179E-01
DAV:  16    -0.623604920319E+03   -0.27635E-03   -0.11287E-03 12384   0.382E-02    0.198E-01
DAV:  17    -0.623605067123E+03   -0.14680E-03   -0.54826E-04 12192   0.304E-02    0.115E-01
DAV:  18    -0.623605230601E+03   -0.16348E-03   -0.33341E-04 11760   0.256E-02    0.834E-02
DAV:  19    -0.623605383970E+03   -0.15337E-03   -0.16735E-04 12144   0.199E-02    0.708E-02
DAV:  20    -0.623605483458E+03   -0.99488E-04   -0.15038E-04 12144   0.180E-02    0.680E-02
DAV:  21    -0.623605617152E+03   -0.13369E-03   -0.17013E-04 12240   0.211E-02    0.559E-02
DAV:  22    -0.623605781798E+03   -0.16465E-03   -0.30247E-04 12672   0.295E-02    0.649E-02
DAV:  23    -0.623605884533E+03   -0.10273E-03   -0.16696E-04 12768   0.204E-02    0.575E-02
DAV:  24    -0.623605965864E+03   -0.81330E-04   -0.11733E-04 11568   0.185E-02    0.496E-02
DAV:  25    -0.623606027078E+03   -0.61214E-04   -0.70310E-05 12384   0.131E-02    0.509E-02
DAV:  26    -0.623606202717E+03   -0.17564E-03   -0.70166E-04 12240   0.460E-02    0.573E-02
DAV:  27    -0.623606357265E+03   -0.15455E-03   -0.19691E-03 12816   0.794E-02    0.471E-02
DAV:  28    -0.623606442518E+03   -0.85253E-04   -0.33651E-03 12432   0.973E-02    0.366E-02
DAV:  29    -0.623606515524E+03   -0.73006E-04   -0.11154E-03 13008   0.515E-02    0.371E-02
DAV:  30    -0.623606573125E+03   -0.57601E-04   -0.20438E-04 12384   0.205E-02    0.278E-02
DAV:  31    -0.623606600891E+03   -0.27766E-04   -0.61420E-05 12432   0.129E-02    0.227E-02
DAV:  32    -0.623606620710E+03   -0.19819E-04   -0.67131E-05 12144   0.133E-02    0.117E-02
DAV:  33    -0.623606654865E+03   -0.34154E-04   -0.67619E-05 13104   0.202E-02    0.173E-02
DAV:  34    -0.623606662725E+03   -0.78609E-05   -0.12729E-04 12720   0.237E-02    0.710E-03
DAV:  35    -0.623606691502E+03   -0.28776E-04   -0.78279E-06 10224   0.467E-03    0.665E-03
DAV:  36    -0.623606707990E+03   -0.16488E-04   -0.71727E-06  9456   0.500E-03    0.385E-03
DAV:  37    -0.623606715636E+03   -0.76461E-05   -0.22836E-05 12288   0.869E-03    0.263E-03
DAV:  38    -0.623606722252E+03   -0.66160E-05   -0.20818E-06  8784   0.377E-03    0.302E-03
DAV:  39    -0.623606725688E+03   -0.34362E-05   -0.73900E-07  6528   0.197E-03    0.233E-03
DAV:  40    -0.623606730622E+03   -0.49332E-05   -0.22273E-06  7392   0.265E-03    0.152E-03
DAV:  41    -0.623606733305E+03   -0.26835E-05   -0.88282E-07  6144   0.240E-03    0.150E-03
DAV:  42    -0.623606735157E+03   -0.18516E-05   -0.20736E-07  5040   0.924E-04    0.113E-03
DAV:  43    -0.623606736398E+03   -0.12418E-05   -0.13681E-06  6384   0.219E-03    0.121E-03
DAV:  44    -0.623606737946E+03   -0.15480E-05   -0.71476E-07  5568   0.211E-03    0.811E-04
DAV:  45    -0.623606738885E+03   -0.93845E-06   -0.16946E-07  5376   0.636E-04
  10 F= -.62360674E+03 E0= -.62357176E+03  d E =-.697425E+00  mag=    10.0719
       N       E                     dE             d eps       ncg     rms          rms(c)
DAV:   1    -0.623550249897E+03    0.56488E-01   -0.44142E+01  7680   0.937E+00    0.157E+00
DAV:   2    -0.623652526281E+03   -0.10228E+00   -0.11096E+00 10608   0.199E+00    0.168E+00
DAV:   3    -0.623655994859E+03   -0.34686E-02   -0.97607E-02 14256   0.570E-01    0.149E+00
DAV:   4    -0.623654842625E+03    0.11522E-02   -0.13292E-02 12048   0.275E-01    0.117E+00
DAV:   5    -0.623656467765E+03   -0.16251E-02   -0.27442E-02 12816   0.366E-01    0.115E+00
DAV:   6    -0.623653665834E+03    0.28019E-02   -0.23450E-02 12192   0.321E-01    0.588E-01
DAV:   7    -0.623653972669E+03   -0.30683E-03   -0.64056E-03 11904   0.171E-01    0.698E-01
DAV:   8    -0.623653599072E+03    0.37360E-03   -0.27446E-03 12816   0.115E-01    0.229E-01
DAV:   9    -0.623653933403E+03   -0.33433E-03   -0.14489E-03 11520   0.679E-02    0.206E-01
DAV:  10    -0.623653951640E+03   -0.18237E-04   -0.57353E-04 12816   0.424E-02    0.123E-01
DAV:  11    -0.623654021678E+03   -0.70038E-04   -0.36282E-04 12720   0.324E-02    0.113E-01
DAV:  12    -0.623654069104E+03   -0.47426E-04   -0.22692E-04 12432   0.248E-02    0.651E-02
DAV:  13    -0.623654113810E+03   -0.44706E-04   -0.11521E-04 13104   0.198E-02    0.521E-02
DAV:  14    -0.623654137076E+03   -0.23266E-04   -0.59664E-05 11568   0.130E-02    0.394E-02
DAV:  15    -0.623654153770E+03   -0.16693E-04   -0.24387E-05 12288   0.740E-03    0.295E-02
DAV:  16    -0.623654178115E+03   -0.24346E-04   -0.27825E-05 12048   0.740E-03    0.320E-02
DAV:  17    -0.623654199208E+03   -0.21093E-04   -0.31523E-05 11376   0.756E-03    0.390E-02
DAV:  18    -0.623654216108E+03   -0.16900E-04   -0.20657E-05 11184   0.581E-03    0.194E-02
DAV:  19    -0.623654232480E+03   -0.16372E-04   -0.71836E-06  9504   0.389E-03    0.120E-02
DAV:  20    -0.623654247026E+03   -0.14547E-04   -0.53669E-06  8160   0.343E-03    0.140E-02
DAV:  21    -0.623654256346E+03   -0.93196E-05   -0.23767E-06  6960   0.254E-03    0.675E-03
DAV:  22    -0.623654267843E+03   -0.11497E-04   -0.15956E-06  6480   0.236E-03    0.698E-03
DAV:  23    -0.623654275561E+03   -0.77179E-05   -0.12693E-06  6048   0.191E-03    0.538E-03
DAV:  24    -0.623654280828E+03   -0.52668E-05   -0.83038E-07  5280   0.167E-03    0.271E-03
DAV:  25    -0.623654282977E+03   -0.21485E-05   -0.37787E-07  5136   0.124E-03    0.311E-03
DAV:  26    -0.623654285503E+03   -0.25266E-05   -0.34042E-07  4992   0.111E-03    0.179E-03
DAV:  27    -0.623654287067E+03   -0.15635E-05   -0.20849E-07  4992   0.975E-04    0.204E-03
DAV:  28    -0.623654289539E+03   -0.24727E-05   -0.35065E-07  4992   0.960E-04    0.180E-03
DAV:  29    -0.623654290550E+03   -0.10104E-05   -0.17793E-07  4992   0.894E-04    0.966E-04
DAV:  30    -0.623654291031E+03   -0.48149E-06   -0.10436E-07  4992   0.694E-04
  11 F= -.62365429E+03 E0= -.62361849E+03  d E =-.744977E+00  mag=    10.0595
       N       E                     dE             d eps       ncg     rms          rms(c)
DAV:   1    -0.623255831545E+03    0.39846E+00   -0.35076E+02  7680   0.266E+01    0.383E+00
DAV:   2    -0.624109935783E+03   -0.85410E+00   -0.89729E+00 10704   0.538E+00    0.519E+00
DAV:   3    -0.624114426375E+03   -0.44906E-02   -0.52070E-01 13824   0.129E+00    0.375E+00
DAV:   4    -0.624130064568E+03   -0.15638E-01   -0.21941E-01 12672   0.931E-01    0.508E+00
DAV:   5    -0.624088766085E+03    0.41298E-01   -0.91437E-02 11904   0.757E-01    0.277E+00
DAV:   6    -0.624085118424E+03    0.36477E-02   -0.11475E-01 11616   0.701E-01    0.131E+00
DAV:   7    -0.624090385195E+03   -0.52668E-02   -0.62071E-02 11856   0.459E-01    0.193E+00
DAV:   8    -0.624090267531E+03    0.11766E-03   -0.18872E-02 12384   0.266E-01    0.146E+00
DAV:   9    -0.624089461689E+03    0.80584E-03   -0.10817E-02 12000   0.186E-01    0.937E-01
DAV:  10    -0.624089491262E+03   -0.29573E-04   -0.63882E-03 12960   0.141E-01    0.415E-01
DAV:  11    -0.624090462158E+03   -0.97090E-03   -0.35407E-03 12096   0.103E-01    0.375E-01
DAV:  12    -0.624090679662E+03   -0.21750E-03   -0.17414E-03 12816   0.724E-02    0.181E-01
DAV:  13    -0.624090917210E+03   -0.23755E-03   -0.86439E-04 11856   0.595E-02    0.132E-01
DAV:  14    -0.624091007961E+03   -0.90751E-04   -0.41196E-04 12960   0.325E-02    0.103E-01
DAV:  15    -0.624091074023E+03   -0.66062E-04   -0.18493E-04 12528   0.205E-02    0.693E-02
DAV:  16    -0.624091161871E+03   -0.87847E-04   -0.10506E-04 12000   0.179E-02    0.811E-02
DAV:  17    -0.624091228212E+03   -0.66341E-04   -0.24728E-04 11952   0.143E-02    0.102E-01
DAV:  18    -0.624091259123E+03   -0.30911E-04   -0.75454E-05 10320   0.108E-02    0.657E-02
DAV:  19    -0.624091291386E+03   -0.32263E-04   -0.55381E-05 10128   0.719E-03    0.286E-02
DAV:  20    -0.624091342448E+03   -0.51062E-04   -0.28626E-05  9600   0.608E-03    0.346E-02
DAV:  21    -0.624091380097E+03   -0.37649E-04   -0.26892E-05 10608   0.548E-03    0.235E-02
DAV:  22    -0.624091430006E+03   -0.49909E-04   -0.26784E-05 10224   0.550E-03    0.352E-02
DAV:  23    -0.624091469510E+03   -0.39504E-04   -0.29564E-05  9360   0.574E-03    0.211E-02
DAV:  24    -0.624091489397E+03   -0.19886E-04   -0.14212E-05  9312   0.453E-03    0.107E-02
DAV:  25    -0.624091496124E+03   -0.67275E-05   -0.49656E-06  7776   0.284E-03    0.910E-03
DAV:  26    -0.624091499358E+03   -0.32337E-05   -0.29895E-06  7536   0.248E-03    0.799E-03
DAV:  27    -0.624091500272E+03   -0.91463E-06   -0.13478E-06  5520   0.184E-03
  12 F= -.62409150E+03 E0= -.62405336E+03  d E =-.437209E+00  mag=     9.9211
       N       E                     dE             d eps       ncg     rms          rms(c)
DAV:   1    -0.624069364658E+03    0.22135E-01   -0.18979E+01  7680   0.617E+00    0.963E-01
DAV:   2    -0.624112633466E+03   -0.43269E-01   -0.45423E-01 10560   0.122E+00    0.128E+00
DAV:   3    -0.624113078573E+03   -0.44511E-03   -0.33059E-02 14448   0.307E-01    0.116E+00
DAV:   4    -0.624112699913E+03    0.37866E-03   -0.36838E-03 12192   0.133E-01    0.932E-01
DAV:   5    -0.624112564207E+03    0.13571E-03   -0.81547E-03 11664   0.196E-01    0.679E-01
DAV:   6    -0.624112031757E+03    0.53245E-03   -0.12688E-02 12384   0.237E-01    0.738E-01
DAV:   7    -0.624111734795E+03    0.29696E-03   -0.55516E-03 12048   0.117E-01    0.406E-01
DAV:   8    -0.624111799073E+03   -0.64277E-04   -0.12743E-03 11952   0.764E-02    0.299E-01
DAV:   9    -0.624111818521E+03   -0.19448E-04   -0.83395E-04 12384   0.441E-02    0.147E-01
DAV:  10    -0.624111891271E+03   -0.72751E-04   -0.35414E-04 11904   0.334E-02    0.148E-01
DAV:  11    -0.624111902530E+03   -0.11258E-04   -0.19263E-04 12432   0.235E-02    0.962E-02
DAV:  12    -0.624111951233E+03   -0.48703E-04   -0.26369E-04 11328   0.206E-02    0.863E-02
DAV:  13    -0.624111983494E+03   -0.32261E-04   -0.99657E-05 11088   0.147E-02    0.557E-02
DAV:  14    -0.624112004011E+03   -0.20517E-04   -0.50416E-05 12240   0.864E-03    0.297E-02
DAV:  15    -0.624112029478E+03   -0.25467E-04   -0.24307E-05 10128   0.574E-03    0.303E-02
DAV:  16    -0.624112037546E+03   -0.80684E-05   -0.11438E-05  8496   0.367E-03    0.178E-02
DAV:  17    -0.624112049849E+03   -0.12303E-04   -0.65031E-06  7440   0.277E-03    0.210E-02
DAV:  18    -0.624112064216E+03   -0.14367E-04   -0.73792E-06  8400   0.304E-03    0.229E-02
DAV:  19    -0.624112070759E+03   -0.65433E-05   -0.28944E-06  6768   0.269E-03    0.112E-02
DAV:  20    -0.624112077542E+03   -0.67829E-05   -0.11694E-06  5904   0.212E-03    0.496E-03
DAV:  21    -0.624112082909E+03   -0.53664E-05   -0.54210E-07  5088   0.144E-03    0.515E-03
DAV:  22    -0.624112089038E+03   -0.61292E-05   -0.65283E-07  5568   0.135E-03    0.503E-03
DAV:  23    -0.624112093637E+03   -0.45994E-05   -0.62846E-07  5280   0.133E-03    0.296E-03
DAV:  24    -0.624112096373E+03   -0.27358E-05   -0.39859E-07  4992   0.114E-03    0.330E-03
DAV:  25    -0.624112098115E+03   -0.17414E-05   -0.32247E-07  5040   0.104E-03    0.227E-03
DAV:  26    -0.624112099030E+03   -0.91500E-06   -0.18790E-07  4992   0.849E-04
  13 F= -.62411210E+03 E0= -.62407439E+03  d E =-.457808E+00  mag=     9.8932
       N       E                     dE             d eps       ncg     rms          rms(c)
DAV:   1    -0.624005275882E+03    0.10682E+00   -0.13711E+02  7680   0.163E+01    0.368E+00
DAV:   2    -0.624359748896E+03   -0.35447E+00   -0.39410E+00 11856   0.377E+00    0.281E+00
DAV:   3    -0.624365972446E+03   -0.62236E-02   -0.29588E-01 14208   0.992E-01    0.179E+00
DAV:   4    -0.624368672515E+03   -0.27001E-02   -0.10119E-01 12528   0.709E-01    0.197E+00
DAV:   5    -0.624364994180E+03    0.36783E-02   -0.12745E-01 13296   0.664E-01    0.207E+00
DAV:   6    -0.624362934780E+03    0.20594E-02   -0.77263E-02 12672   0.465E-01    0.144E+00
DAV:   7    -0.624361679298E+03    0.12555E-02   -0.16281E-02 12576   0.285E-01    0.947E-01
DAV:   8    -0.624361178708E+03    0.50059E-03   -0.10105E-02 12624   0.205E-01    0.378E-01
DAV:   9    -0.624361373153E+03   -0.19444E-03   -0.44710E-03 12288   0.111E-01    0.312E-01
DAV:  10    -0.624361432132E+03   -0.58979E-04   -0.11001E-03 13392   0.702E-02    0.137E-01
DAV:  11    -0.624361601718E+03   -0.16959E-03   -0.68729E-04 12624   0.513E-02    0.136E-01
DAV:  12    -0.624361702396E+03   -0.10068E-03   -0.28289E-04 11952   0.299E-02    0.100E-01
DAV:  13    -0.624361799767E+03   -0.97370E-04   -0.14507E-04 12816   0.252E-02    0.787E-02
DAV:  14    -0.624361861821E+03   -0.62055E-04   -0.13027E-04 12432   0.160E-02    0.671E-02
DAV:  15    -0.624361898156E+03   -0.36335E-04   -0.50942E-05 12144   0.123E-02    0.476E-02
DAV:  16    -0.624361939349E+03   -0.41192E-04   -0.41409E-05 10944   0.821E-03    0.546E-02
DAV:  17    -0.624361972929E+03   -0.33580E-04   -0.23431E-05 10032   0.651E-03    0.270E-02
DAV:  18    -0.624362001355E+03   -0.28426E-04   -0.13338E-05  9264   0.494E-03    0.307E-02
DAV:  19    -0.624362025949E+03   -0.24595E-04   -0.55132E-06  8688   0.321E-03    0.196E-02
DAV:  20    -0.624362048654E+03   -0.22705E-04   -0.44688E-06  7680   0.311E-03    0.643E-03
DAV:  21    -0.624362075716E+03   -0.27061E-04   -0.34743E-06  6768   0.224E-03    0.128E-02
DAV:  22    -0.624362097703E+03   -0.21987E-04   -0.27102E-06  6432   0.208E-03    0.945E-03
DAV:  23    -0.624362112902E+03   -0.15200E-04   -0.11262E-06  6048   0.169E-03    0.547E-03
DAV:  24    -0.624362125474E+03   -0.12571E-04   -0.12226E-06  6192   0.158E-03    0.414E-03
DAV:  25    -0.624362131815E+03   -0.63413E-05   -0.39664E-07  5136   0.121E-03    0.254E-03
DAV:  26    -0.624362138163E+03   -0.63473E-05   -0.41156E-07  5616   0.103E-03    0.223E-03
DAV:  27    -0.624362143967E+03   -0.58048E-05   -0.34855E-07  5424   0.102E-03    0.141E-03
DAV:  28    -0.624362147754E+03   -0.37871E-05   -0.27749E-07  5376   0.930E-04    0.127E-03
DAV:  29    -0.624362150173E+03   -0.24188E-05   -0.20145E-07  4992   0.843E-04    0.778E-04
DAV:  30    -0.624362151914E+03   -0.17403E-05   -0.15939E-07  4992   0.753E-04    0.882E-04
DAV:  31    -0.624362153166E+03   -0.12528E-05   -0.12956E-07  4992   0.694E-04    0.677E-04
DAV:  32    -0.624362153873E+03   -0.70667E-06   -0.96060E-08  4992   0.632E-04
  14 F= -.62436215E+03 E0= -.62432675E+03  d E =-.250055E+00  mag=     9.8408
       N       E                     dE             d eps       ncg     rms          rms(c)
DAV:   1    -0.624362140823E+03    0.12344E-04   -0.18492E-02  7872   0.188E-01    0.316E-02
DAV:   2    -0.624362183003E+03   -0.42180E-04   -0.50275E-04 11568   0.427E-02    0.400E-02
DAV:   3    -0.624362183694E+03   -0.69189E-06   -0.41560E-05 14304   0.128E-02    0.275E-02
DAV:   4    -0.624362184327E+03   -0.63265E-06   -0.95444E-06 12048   0.812E-03    0.257E-02
DAV:   5    -0.624362184624E+03   -0.29681E-06   -0.89004E-06 11616   0.575E-03    0.156E-02
DAV:   6    -0.624362185341E+03   -0.71695E-06   -0.74797E-06 10896   0.572E-03
  15 F= -.62436219E+03 E0= -.62432682E+03  d E =-.250086E+00  mag=     9.8405
       N       E                     dE             d eps       ncg     rms          rms(c)
DAV:   1    -0.624354743488E+03    0.74411E-02   -0.59606E+01  7680   0.110E+01    0.158E+00
DAV:   2    -0.624492686411E+03   -0.13794E+00   -0.14843E+00 11280   0.231E+00    0.164E+00
DAV:   3    -0.624494553570E+03   -0.18672E-02   -0.10986E-01 14160   0.574E-01    0.963E-01
DAV:   4    -0.624492266308E+03    0.22873E-02   -0.24336E-02 11328   0.318E-01    0.105E+00
DAV:   5    -0.624492945936E+03   -0.67963E-03   -0.12963E-02 12864   0.263E-01    0.155E+00
DAV:   6    -0.624490127862E+03    0.28181E-02   -0.99876E-03 12480   0.242E-01    0.513E-01
DAV:   7    -0.624491475038E+03   -0.13472E-02   -0.80060E-03 12384   0.185E-01    0.505E-01
DAV:   8    -0.624491288871E+03    0.18617E-03   -0.34718E-03 11808   0.904E-02    0.213E-01
DAV:   9    -0.624491406114E+03   -0.11724E-03   -0.95704E-04 12336   0.598E-02    0.187E-01
DAV:  10    -0.624491406828E+03   -0.71423E-06   -0.39281E-04 11664   0.330E-02    0.129E-01
DAV:  11    -0.624491453541E+03   -0.46712E-04   -0.18860E-04 12720   0.317E-02    0.103E-01
DAV:  12    -0.624491504098E+03   -0.50557E-04   -0.14842E-04 11328   0.223E-02    0.765E-02
DAV:  13    -0.624491523543E+03   -0.19445E-04   -0.56385E-05 12528   0.116E-02    0.277E-02
DAV:  14    -0.624491557012E+03   -0.33469E-04   -0.23047E-05 12480   0.743E-03    0.395E-02
DAV:  15    -0.624491571094E+03   -0.14082E-04   -0.16265E-05  9456   0.460E-03    0.200E-02
DAV:  16    -0.624491589023E+03   -0.17929E-04   -0.73684E-06  8352   0.343E-03    0.251E-02
DAV:  17    -0.624491606416E+03   -0.17393E-04   -0.10896E-05  8544   0.306E-03    0.218E-02
DAV:  18    -0.624491618976E+03   -0.12560E-04   -0.47199E-06  7056   0.259E-03    0.112E-02
DAV:  19    -0.624491634887E+03   -0.15911E-04   -0.28150E-06  6288   0.196E-03    0.823E-03
DAV:  20    -0.624491645514E+03   -0.10627E-04   -0.11239E-06  5472   0.152E-03    0.406E-03
DAV:  21    -0.624491654534E+03   -0.90195E-05   -0.48560E-07  5664   0.116E-03    0.358E-03
DAV:  22    -0.624491662955E+03   -0.84214E-05   -0.43461E-07  5376   0.967E-04    0.210E-03
DAV:  23    -0.624491670299E+03   -0.73442E-05   -0.34569E-07  5664   0.910E-04    0.239E-03
DAV:  24    -0.624491675312E+03   -0.50132E-05   -0.27308E-07  5184   0.831E-04    0.146E-03
DAV:  25    -0.624491679600E+03   -0.42878E-05   -0.23857E-07  5328   0.757E-04    0.132E-03
DAV:  26    -0.624491682639E+03   -0.30392E-05   -0.18567E-07  4992   0.723E-04    0.730E-04
DAV:  27    -0.624491684887E+03   -0.22480E-05   -0.17202E-07  5232   0.659E-04    0.597E-04
DAV:  28    -0.624491686024E+03   -0.11365E-05   -0.12146E-07  4992   0.608E-04    0.542E-04
DAV:  29    -0.624491686688E+03   -0.66357E-06   -0.85021E-08  4992   0.507E-04
  16 F= -.62449169E+03 E0= -.62445861E+03  d E =-.129501E+00  mag=     9.8405
       N       E                     dE             d eps       ncg     rms          rms(c)
DAV:   1    -0.624452971499E+03    0.38715E-01   -0.28692E+01  7680   0.761E+00    0.109E+00
DAV:   2    -0.624518557285E+03   -0.65586E-01   -0.71018E-01 11280   0.160E+00    0.111E+00
DAV:   3    -0.624519246543E+03   -0.68926E-03   -0.51669E-02 14160   0.398E-01    0.650E-01
DAV:   4    -0.624518084416E+03    0.11621E-02   -0.11842E-02 11664   0.214E-01    0.534E-01
DAV:   5    -0.624517796877E+03    0.28754E-03   -0.64747E-03 13344   0.199E-01    0.320E-01
DAV:   6    -0.624517683460E+03    0.11342E-03   -0.42642E-03 12816   0.133E-01    0.280E-01
DAV:   7    -0.624517710188E+03   -0.26728E-04   -0.16153E-03 12624   0.683E-02    0.181E-01
DAV:   8    -0.624517735876E+03   -0.25688E-04   -0.43861E-04 12384   0.429E-02    0.159E-01
DAV:   9    -0.624517709677E+03    0.26200E-04   -0.19856E-04 12000   0.276E-02    0.695E-02
DAV:  10    -0.624517758756E+03   -0.49079E-04   -0.15591E-04 12336   0.218E-02    0.802E-02
DAV:  11    -0.624517773744E+03   -0.14988E-04   -0.10748E-04 12960   0.165E-02    0.351E-02
DAV:  12    -0.624517798411E+03   -0.24667E-04   -0.38804E-05 12624   0.136E-02    0.304E-02
DAV:  13    -0.624517809133E+03   -0.10722E-04   -0.27285E-05 11280   0.660E-03    0.240E-02
DAV:  14    -0.624517817205E+03   -0.80712E-05   -0.82642E-06  8832   0.369E-03    0.178E-02
DAV:  15    -0.624517825871E+03   -0.86666E-05   -0.40961E-06  6768   0.283E-03    0.129E-02
DAV:  16    -0.624517834511E+03   -0.86394E-05   -0.23848E-06  6384   0.214E-03    0.127E-02
DAV:  17    -0.624517842657E+03   -0.81465E-05   -0.14790E-06  5520   0.190E-03    0.870E-03
DAV:  18    -0.624517850815E+03   -0.81579E-05   -0.13027E-06  5424   0.156E-03    0.570E-03
DAV:  19    -0.624517857926E+03   -0.71110E-05   -0.44858E-07  5328   0.136E-03    0.471E-03
DAV:  20    -0.624517863177E+03   -0.52514E-05   -0.38320E-07  4992   0.986E-04    0.149E-03
DAV:  21    -0.624517869459E+03   -0.62811E-05   -0.30308E-07  5520   0.907E-04    0.134E-03
DAV:  22    -0.624517873976E+03   -0.45177E-05   -0.24167E-07  5088   0.783E-04    0.199E-03
DAV:  23    -0.624517877600E+03   -0.36239E-05   -0.24286E-07  5040   0.761E-04    0.162E-03
DAV:  24    -0.624517879423E+03   -0.18229E-05   -0.15021E-07  4992   0.681E-04    0.186E-03
DAV:  25    -0.624517881590E+03   -0.21671E-05   -0.13785E-07  4992   0.602E-04    0.830E-04
[...]
DAV:  18    -0.624951480683E+03   -0.64633E-04   -0.57983E-06  8064   0.374E-03    0.205E-02
DAV:  19    -0.624951525185E+03   -0.44502E-04   -0.38801E-06  7776   0.263E-03    0.130E-02
DAV:  20    -0.624951584381E+03   -0.59196E-04   -0.41191E-06  7776   0.261E-03    0.845E-03
DAV:  21    -0.624951625783E+03   -0.41402E-04   -0.19324E-06  6816   0.184E-03    0.602E-03
DAV:  22    -0.624951650968E+03   -0.25185E-04   -0.95948E-07  6096   0.147E-03    0.258E-03
DAV:  23    -0.624951670243E+03   -0.19275E-04   -0.84304E-07  6096   0.124E-03    0.299E-03
DAV:  24    -0.624951681433E+03   -0.11190E-04   -0.49203E-07  5712   0.109E-03    0.247E-03
DAV:  25    -0.624951688495E+03   -0.70613E-05   -0.43518E-07  5424   0.994E-04    0.255E-03
DAV:  26    -0.624951695632E+03   -0.71377E-05   -0.47045E-07  5664   0.926E-04    0.161E-03
DAV:  27    -0.624951699911E+03   -0.42783E-05   -0.29304E-07  5376   0.845E-04    0.180E-03
DAV:  28    -0.624951702799E+03   -0.28879E-05   -0.22380E-07  5328   0.759E-04    0.102E-03
DAV:  29    -0.624951704653E+03   -0.18547E-05   -0.18747E-07  5088   0.725E-04    0.704E-04
DAV:  30    -0.624951706137E+03   -0.14841E-05   -0.17035E-07  5328   0.644E-04    0.600E-04
DAV:  31    -0.624951706678E+03   -0.54101E-06   -0.10797E-07  4992   0.620E-04
  32 F= -.62495171E+03 E0= -.62491850E+03  d E =-.563305E-01  mag=     9.8881
       N       E                     dE             d eps       ncg     rms          rms(c)
DAV:   1    -0.624185204065E+03    0.76650E+00   -0.34706E+02  7728   0.262E+01    0.341E+00
DAV:   2    -0.624964357781E+03   -0.77915E+00   -0.82254E+00  9600   0.504E+00    0.314E+00
DAV:   3    -0.624978135219E+03   -0.13777E-01   -0.69258E-01 14736   0.139E+00    0.182E+00
DAV:   4    -0.624975838051E+03    0.22972E-02   -0.18480E-01 12768   0.825E-01    0.248E+00
DAV:   5    -0.624965359580E+03    0.10478E-01   -0.15828E-01 12576   0.615E-01    0.150E+00
DAV:   6    -0.624959785997E+03    0.55736E-02   -0.64933E-02 12384   0.490E-01    0.126E+00
DAV:   7    -0.624960608210E+03   -0.82221E-03   -0.32749E-02 11616   0.319E-01    0.147E+00
DAV:   8    -0.624959601897E+03    0.10063E-02   -0.15722E-02 12480   0.245E-01    0.580E-01
DAV:   9    -0.624960078817E+03   -0.47692E-03   -0.90987E-03 12144   0.146E-01    0.503E-01
DAV:  10    -0.624959814526E+03    0.26429E-03   -0.33791E-03 12816   0.976E-02    0.206E-01
DAV:  11    -0.624959793195E+03    0.21331E-04   -0.19522E-03 12576   0.694E-02    0.268E-01
DAV:  12    -0.624959711945E+03    0.81250E-04   -0.93021E-04 12816   0.473E-02    0.185E-01
DAV:  13    -0.624959648901E+03    0.63044E-04   -0.62671E-04 12480   0.341E-02    0.116E-01
DAV:  14    -0.624959689027E+03   -0.40125E-04   -0.21093E-04 11856   0.227E-02    0.119E-01
DAV:  15    -0.624959772495E+03   -0.83469E-04   -0.11863E-04 12768   0.158E-02    0.711E-02
DAV:  16    -0.624959931405E+03   -0.15891E-03   -0.65938E-05 11040   0.115E-02    0.789E-02
DAV:  17    -0.624960034451E+03   -0.10305E-03   -0.41199E-05 10848   0.966E-03    0.421E-02
DAV:  18    -0.624960118971E+03   -0.84520E-04   -0.17529E-05  9696   0.651E-03    0.527E-02
DAV:  19    -0.624960276981E+03   -0.15801E-03   -0.18726E-05  9840   0.559E-03    0.172E-02
DAV:  20    -0.624960405577E+03   -0.12860E-03   -0.14105E-05  9360   0.477E-03    0.178E-02
DAV:  21    -0.624960477118E+03   -0.71541E-04   -0.92491E-06  8400   0.325E-03    0.139E-02
DAV:  22    -0.624960535058E+03   -0.57940E-04   -0.57153E-06  7872   0.259E-03    0.928E-03
DAV:  23    -0.624960570979E+03   -0.35921E-04   -0.32736E-06  7296   0.207E-03    0.719E-03
DAV:  24    -0.624960597701E+03   -0.26722E-04   -0.22267E-06  6672   0.159E-03    0.619E-03
DAV:  25    -0.624960611467E+03   -0.13766E-04   -0.57714E-07  5616   0.124E-03    0.243E-03
DAV:  26    -0.624960620782E+03   -0.93147E-05   -0.51395E-07  5520   0.999E-04    0.239E-03
DAV:  27    -0.624960629875E+03   -0.90931E-05   -0.44029E-07  5568   0.916E-04    0.237E-03
DAV:  28    -0.624960636601E+03   -0.67264E-05   -0.33684E-07  5376   0.846E-04    0.241E-03
DAV:  29    -0.624960642917E+03   -0.63160E-05   -0.41059E-07  5568   0.857E-04    0.980E-04
DAV:  30    -0.624960647780E+03   -0.48629E-05   -0.38268E-07  5472   0.828E-04    0.131E-03
DAV:  31    -0.624960649158E+03   -0.13778E-05   -0.15591E-07  4992   0.712E-04    0.805E-04
DAV:  32    -0.624960650333E+03   -0.11755E-05   -0.12764E-07  5040   0.565E-04    0.652E-04
DAV:  33    -0.624960651099E+03   -0.76546E-06   -0.86112E-08  4992   0.540E-04
  33 F= -.62496065E+03 E0= -.62492737E+03  d E =-.652750E-01  mag=     9.9450
       N       E                     dE             d eps       ncg     rms          rms(c)
DAV:   1    -0.624822854023E+03    0.13780E+00   -0.70317E+01  7680   0.118E+01    0.159E+00
DAV:   2    -0.624973004622E+03   -0.15015E+00   -0.16154E+00  9936   0.224E+00    0.138E+00
DAV:   3    -0.624972843030E+03    0.16159E-03   -0.13551E-01 14352   0.648E-01    0.982E-01
DAV:   4    -0.624971747248E+03    0.10958E-02   -0.25114E-02 12000   0.308E-01    0.850E-01
DAV:   5    -0.624971450306E+03    0.29694E-03   -0.13343E-02 12720   0.262E-01    0.146E+00
DAV:   6    -0.624969017157E+03    0.24331E-02   -0.11181E-02 12288   0.217E-01    0.658E-01
DAV:   7    -0.624969908040E+03   -0.89088E-03   -0.73668E-03 12768   0.179E-01    0.341E-01
DAV:   8    -0.624969677981E+03    0.23006E-03   -0.37746E-03 12720   0.114E-01    0.244E-01
DAV:   9    -0.624969656579E+03    0.21402E-04   -0.10184E-03 13536   0.569E-02    0.144E-01
DAV:  10    -0.624969720532E+03   -0.63952E-04   -0.30295E-04 12576   0.303E-02    0.771E-02
DAV:  11    -0.624969794763E+03   -0.74231E-04   -0.24190E-04 12672   0.239E-02    0.864E-02
DAV:  12    -0.624969823658E+03   -0.28895E-04   -0.12454E-04 12048   0.177E-02    0.421E-02
DAV:  13    -0.624969856064E+03   -0.32406E-04   -0.44407E-05 12720   0.117E-02    0.230E-02
DAV:  14    -0.624969876740E+03   -0.20676E-04   -0.17667E-05 11376   0.637E-03    0.202E-02
DAV:  15    -0.624969896923E+03   -0.20182E-04   -0.58153E-06 10080   0.426E-03    0.225E-02
DAV:  16    -0.624969912626E+03   -0.15703E-04   -0.49898E-06  8640   0.377E-03    0.110E-02
DAV:  17    -0.624969933823E+03   -0.21197E-04   -0.46414E-06  7536   0.313E-03    0.120E-02
DAV:  18    -0.624969948670E+03   -0.14847E-04   -0.48886E-06  6912   0.270E-03    0.153E-02
DAV:  19    -0.624969961097E+03   -0.12427E-04   -0.31197E-06  6480   0.234E-03    0.936E-03
DAV:  20    -0.624969969309E+03   -0.82117E-05   -0.17020E-06  5520   0.166E-03    0.513E-03
DAV:  21    -0.624969977320E+03   -0.80107E-05   -0.53345E-07  5424   0.127E-03    0.413E-03
DAV:  22    -0.624969981793E+03   -0.44737E-05   -0.34160E-07  4992   0.103E-03    0.298E-03
DAV:  23    -0.624969987391E+03   -0.55977E-05   -0.28352E-07  5136   0.852E-04    0.237E-03
DAV:  24    -0.624969991844E+03   -0.44526E-05   -0.25612E-07  4992   0.862E-04    0.205E-03
DAV:  25    -0.624969994085E+03   -0.22408E-05   -0.17589E-07  4992   0.725E-04    0.206E-03
DAV:  26    -0.624969996856E+03   -0.27715E-05   -0.14140E-07  4992   0.674E-04    0.177E-03
DAV:  27    -0.624969998519E+03   -0.16626E-05   -0.13176E-07  4992   0.638E-04    0.856E-04
DAV:  28    -0.624970000526E+03   -0.20077E-05   -0.11804E-07  4992   0.548E-04    0.103E-03
DAV:  29    -0.624970001590E+03   -0.10640E-05   -0.84368E-08  4992   0.560E-04    0.973E-04
DAV:  30    -0.624970002380E+03   -0.78952E-06   -0.67972E-08  4992   0.446E-04
  34 F= -.62497000E+03 E0= -.62493676E+03  d E =-.746262E-01  mag=     9.9225
       N       E                     dE             d eps       ncg     rms          rms(c)
DAV:   1    -0.625000084159E+03   -0.30083E-01   -0.18475E+00  7680   0.191E+00    0.352E-01
DAV:   2    -0.625004889393E+03   -0.48052E-02   -0.50812E-02 11040   0.441E-01    0.459E-01
DAV:   3    -0.625004765970E+03    0.12342E-03   -0.66980E-03 13968   0.186E-01    0.324E-01
DAV:   4    -0.625004637792E+03    0.12818E-03   -0.98668E-04 11712   0.650E-02    0.212E-01
DAV:   5    -0.625004680851E+03   -0.43058E-04   -0.16376E-03 13968   0.695E-02    0.242E-01
DAV:   6    -0.625004568384E+03    0.11247E-03   -0.94568E-04 12576   0.580E-02    0.327E-01
DAV:   7    -0.625004343552E+03    0.22483E-03   -0.59038E-04 11808   0.489E-02    0.697E-02
DAV:   8    -0.625004465628E+03   -0.12208E-03   -0.31610E-04 11232   0.273E-02    0.111E-01
DAV:   9    -0.625004465187E+03    0.44009E-06   -0.13984E-04 12384   0.165E-02    0.514E-02
DAV:  10    -0.625004483276E+03   -0.18089E-04   -0.42972E-05 11952   0.120E-02    0.413E-02
DAV:  11    -0.625004492203E+03   -0.89269E-05   -0.19552E-05 12144   0.688E-03    0.312E-02
DAV:  12    -0.625004498845E+03   -0.66422E-05   -0.86749E-06 10224   0.493E-03    0.121E-02
DAV:  13    -0.625004514366E+03   -0.15520E-04   -0.58137E-06  9120   0.391E-03    0.217E-02
DAV:  14    -0.625004522729E+03   -0.83636E-05   -0.28605E-06  7152   0.302E-03    0.102E-02
DAV:  15    -0.625004531578E+03   -0.88488E-05   -0.13806E-06  5904   0.216E-03    0.124E-02
DAV:  16    -0.625004538626E+03   -0.70480E-05   -0.14331E-06  6096   0.178E-03    0.721E-03
DAV:  17    -0.625004546341E+03   -0.77146E-05   -0.66216E-07  5616   0.134E-03    0.548E-03
DAV:  18    -0.625004555341E+03   -0.89998E-05   -0.66897E-07  5664   0.117E-03    0.617E-03
DAV:  19    -0.625004561956E+03   -0.66155E-05   -0.37278E-07  5472   0.109E-03    0.274E-03
DAV:  20    -0.625004570366E+03   -0.84100E-05   -0.67637E-07  6048   0.101E-03    0.278E-03
DAV:  21    -0.625004573995E+03   -0.36287E-05   -0.19608E-07  5088   0.851E-04    0.181E-03
DAV:  22    -0.625004582218E+03   -0.82233E-05   -0.55278E-07  6144   0.801E-04    0.214E-03
DAV:  23    -0.625004585555E+03   -0.33369E-05   -0.21738E-07  5568   0.844E-04    0.127E-03
DAV:  24    -0.625004588480E+03   -0.29247E-05   -0.24429E-07  5520   0.675E-04    0.119E-03
DAV:  25    -0.625004590174E+03   -0.16941E-05   -0.14602E-07  5088   0.758E-04    0.665E-04
DAV:  26    -0.625004591044E+03   -0.87026E-06   -0.11575E-07  4992   0.581E-04
  35 F= -.62500459E+03 E0= -.62497132E+03  d E =-.345887E-01  mag=     9.9054
       N       E                     dE             d eps       ncg     rms          rms(c)
DAV:   1    -0.625031102807E+03   -0.26513E-01   -0.16622E+01  7680   0.572E+00    0.102E+00
DAV:   2    -0.625073956388E+03   -0.42854E-01   -0.45645E-01 10992   0.130E+00    0.121E+00
DAV:   3    -0.625074261330E+03   -0.30494E-03   -0.67649E-02 14544   0.521E-01    0.876E-01
DAV:   4    -0.625072585385E+03    0.16759E-02   -0.80530E-03 11568   0.210E-01    0.584E-01
DAV:   5    -0.625073602290E+03   -0.10169E-02   -0.16871E-02 13968   0.228E-01    0.841E-01
DAV:   6    -0.625071823968E+03    0.17783E-02   -0.85557E-03 12336   0.172E-01    0.807E-01
DAV:   7    -0.625070489492E+03    0.13345E-02   -0.49245E-03 11664   0.142E-01    0.278E-01
DAV:   8    -0.625071044263E+03   -0.55477E-03   -0.30863E-03 11520   0.852E-02    0.298E-01
DAV:   9    -0.625070958117E+03    0.86145E-04   -0.10806E-03 13440   0.537E-02    0.828E-02
DAV:  10    -0.625071122291E+03   -0.16417E-03   -0.38647E-04 11616   0.301E-02    0.111E-01
DAV:  11    -0.625071174244E+03   -0.51953E-04   -0.16581E-04 12192   0.182E-02    0.689E-02
DAV:  12    -0.625071287191E+03   -0.11295E-03   -0.13733E-04 11664   0.159E-02    0.672E-02
DAV:  13    -0.625071371205E+03   -0.84014E-04   -0.44869E-05 11712   0.106E-02    0.668E-02
DAV:  14    -0.625071464702E+03   -0.93497E-04   -0.47578E-05 11280   0.885E-03    0.453E-02
DAV:  15    -0.625071551266E+03   -0.86564E-04   -0.15077E-05 10512   0.627E-03    0.286E-02
DAV:  16    -0.625071620787E+03   -0.69521E-04   -0.11104E-05  9264   0.498E-03    0.255E-02
DAV:  17    -0.625071691691E+03   -0.70904E-04   -0.64458E-06  8928   0.339E-03    0.177E-02
DAV:  18    -0.625071785546E+03   -0.93855E-04   -0.79667E-06  8352   0.343E-03    0.136E-02
DAV:  19    -0.625071869276E+03   -0.83730E-04   -0.52107E-06  8016   0.264E-03    0.796E-03
DAV:  20    -0.625071931580E+03   -0.62304E-04   -0.47234E-06  7920   0.232E-03    0.112E-02
DAV:  21    -0.625071971725E+03   -0.40145E-04   -0.29639E-06  7200   0.192E-03    0.631E-03
DAV:  22    -0.625072009319E+03   -0.37593E-04   -0.33033E-06  7584   0.174E-03    0.852E-03
DAV:  23    -0.625072030783E+03   -0.21464E-04   -0.14782E-06  6768   0.146E-03    0.472E-03
DAV:  24    -0.625072044277E+03   -0.13494E-04   -0.10434E-06  6432   0.120E-03    0.312E-03
DAV:  25    -0.625072051010E+03   -0.67334E-05   -0.36262E-07  5856   0.103E-03    0.122E-03
DAV:  26    -0.625072055379E+03   -0.43687E-05   -0.30496E-07  5664   0.869E-04    0.122E-03
DAV:  27    -0.625072058015E+03   -0.26365E-05   -0.20503E-07  5280   0.802E-04    0.850E-04
DAV:  28    -0.625072059896E+03   -0.18809E-05   -0.17918E-07  5376   0.706E-04    0.815E-04
DAV:  29    -0.625072061111E+03   -0.12146E-05   -0.12640E-07  5088   0.655E-04    0.585E-04
DAV:  30    -0.625072061656E+03   -0.54572E-06   -0.84882E-08  4992   0.556E-04
  36 F= -.62507206E+03 E0= -.62503877E+03  d E =-.102059E+00  mag=     9.8425
       N       E                     dE             d eps       ncg     rms          rms(c)
DAV:   1    -0.624878411644E+03    0.19365E+00   -0.66438E+01  7680   0.115E+01    0.194E+00
DAV:   2    -0.625044978960E+03   -0.16657E+00   -0.18067E+00 10944   0.259E+00    0.196E+00
DAV:   3    -0.625049353486E+03   -0.43745E-02   -0.17136E-01 14544   0.749E-01    0.124E+00
DAV:   4    -0.625047835817E+03    0.15177E-02   -0.42543E-02 13200   0.395E-01    0.115E+00
DAV:   5    -0.625045601390E+03    0.22344E-02   -0.36987E-02 12720   0.411E-01    0.159E+00
DAV:   6    -0.625043926270E+03    0.16751E-02   -0.20287E-02 12048   0.290E-01    0.112E+00
DAV:   7    -0.625042896144E+03    0.10301E-02   -0.97086E-03 13104   0.239E-01    0.405E-01
DAV:   8    -0.625043247026E+03   -0.35088E-03   -0.70694E-03 12528   0.149E-01    0.387E-01
DAV:   9    -0.625043195712E+03    0.51314E-04   -0.24937E-03 11472   0.736E-02    0.222E-01
DAV:  10    -0.625043232901E+03   -0.37189E-04   -0.68794E-04 13536   0.558E-02    0.107E-01
DAV:  11    -0.625043349435E+03   -0.11653E-03   -0.34764E-04 11904   0.335E-02    0.104E-01
DAV:  12    -0.625043438970E+03   -0.89535E-04   -0.17643E-04 12672   0.242E-02    0.364E-02
DAV:  13    -0.625043536966E+03   -0.97996E-04   -0.76860E-05 12672   0.167E-02    0.365E-02
DAV:  14    -0.625043581041E+03   -0.44075E-04   -0.34848E-05 11760   0.867E-03    0.329E-02
DAV:  15    -0.625043622241E+03   -0.41200E-04   -0.15675E-05 11184   0.583E-03    0.216E-02
DAV:  16    -0.625043691351E+03   -0.69111E-04   -0.13112E-05  9216   0.493E-03    0.304E-02
DAV:  17    -0.625043739901E+03   -0.48550E-04   -0.10737E-05  9216   0.441E-03    0.151E-02
DAV:  18    -0.625043789008E+03   -0.49107E-04   -0.84176E-06  8256   0.336E-03    0.194E-02
DAV:  19    -0.625043835446E+03   -0.46438E-04   -0.75233E-06  7872   0.301E-03    0.894E-03
DAV:  20    -0.625043867966E+03   -0.32520E-04   -0.52560E-06  7248   0.228E-03    0.109E-02
DAV:  21    -0.625043898351E+03   -0.30385E-04   -0.34238E-06  7680   0.195E-03    0.815E-03
DAV:  22    -0.625043919426E+03   -0.21075E-04   -0.20014E-06  7008   0.164E-03    0.570E-03
DAV:  23    -0.625043936396E+03   -0.16970E-04   -0.15986E-06  6912   0.142E-03    0.622E-03
DAV:  24    -0.625043946631E+03   -0.10235E-04   -0.71406E-07  6432   0.122E-03    0.196E-03
DAV:  25    -0.625043953745E+03   -0.71137E-05   -0.43260E-07  6144   0.969E-04    0.185E-03
DAV:  26    -0.625043959280E+03   -0.55352E-05   -0.38460E-07  6144   0.886E-04    0.113E-03
DAV:  27    -0.625043962494E+03   -0.32136E-05   -0.21255E-07  5184   0.783E-04    0.746E-04
DAV:  28    -0.625043964103E+03   -0.16087E-05   -0.13812E-07  4992   0.677E-04    0.656E-04
DAV:  29    -0.625043965399E+03   -0.12965E-05   -0.10627E-07  5040   0.579E-04    0.668E-04
DAV:  30    -0.625043966682E+03   -0.12830E-05   -0.92517E-08  4992   0.531E-04    0.586E-04
DAV:  31    -0.625043967350E+03   -0.66772E-06   -0.61457E-08  4992   0.480E-04
  37 F= -.62504397E+03 E0= -.62501077E+03  d E =-.739650E-01  mag=     9.8295
       N       E                     dE             d eps       ncg     rms          rms(c)
DAV:   1    -0.625022287912E+03    0.21679E-01   -0.26349E+01  7680   0.721E+00    0.119E+00
DAV:   2    -0.625087804563E+03   -0.65517E-01   -0.70919E-01 10944   0.163E+00    0.126E+00
DAV:   3    -0.625089368274E+03   -0.15637E-02   -0.70147E-02 14256   0.495E-01    0.821E-01
DAV:   4    -0.625088755653E+03    0.61262E-03   -0.17088E-02 12624   0.287E-01    0.824E-01
DAV:   5    -0.625088481509E+03    0.27414E-03   -0.19846E-02 13392   0.286E-01    0.663E-01
DAV:   6    -0.625087196326E+03    0.12852E-02   -0.11749E-02 12624   0.211E-01    0.758E-01
DAV:   7    -0.625086758086E+03    0.43824E-03   -0.41648E-03 11424   0.134E-01    0.413E-01
DAV:   8    -0.625086814043E+03   -0.55957E-04   -0.26868E-03 12672   0.982E-02    0.239E-01
DAV:   9    -0.625086798955E+03    0.15087E-04   -0.15300E-03 11328   0.543E-02    0.153E-01
DAV:  10    -0.625086823645E+03   -0.24690E-04   -0.45215E-04 12576   0.374E-02    0.121E-01
DAV:  11    -0.625086809982E+03    0.13663E-04   -0.22557E-04 11568   0.233E-02    0.646E-02
DAV:  12    -0.625086836196E+03   -0.26214E-04   -0.10757E-04 12528   0.179E-02    0.772E-02
DAV:  13    -0.625086854438E+03   -0.18242E-04   -0.78829E-05 12096   0.138E-02    0.409E-02
DAV:  14    -0.625086872687E+03   -0.18249E-04   -0.28291E-05 11472   0.729E-03    0.276E-02
DAV:  15    -0.625086889559E+03   -0.16872E-04   -0.18717E-05  9312   0.467E-03    0.230E-02
DAV:  16    -0.625086908931E+03   -0.19372E-04   -0.81304E-06  8640   0.364E-03    0.228E-02
DAV:  17    -0.625086931578E+03   -0.22648E-04   -0.60338E-06  8112   0.313E-03    0.126E-02
DAV:  18    -0.625086947495E+03   -0.15917E-04   -0.17597E-06  5856   0.227E-03    0.109E-02
DAV:  19    -0.625086971910E+03   -0.24415E-04   -0.40944E-06  7008   0.210E-03    0.106E-02
DAV:  20    -0.625086991270E+03   -0.19360E-04   -0.24081E-06  6480   0.189E-03    0.855E-03
DAV:  21    -0.625087006649E+03   -0.15379E-04   -0.14360E-06  6048   0.163E-03    0.519E-03
DAV:  22    -0.625087017657E+03   -0.11008E-04   -0.11115E-06  5856   0.142E-03    0.616E-03
DAV:  23    -0.625087027818E+03   -0.10161E-04   -0.68895E-07  5952   0.124E-03    0.317E-03
DAV:  24    -0.625087035263E+03   -0.74450E-05   -0.48517E-07  5520   0.108E-03    0.231E-03
DAV:  25    -0.625087042078E+03   -0.68146E-05   -0.41922E-07  5616   0.970E-04    0.214E-03
DAV:  26    -0.625087047791E+03   -0.57134E-05   -0.31067E-07  5616   0.897E-04    0.122E-03
DAV:  27    -0.625087050925E+03   -0.31342E-05   -0.19780E-07  4992   0.807E-04    0.890E-04
DAV:  28    -0.625087053874E+03   -0.29488E-05   -0.18189E-07  5088   0.691E-04    0.838E-04
DAV:  29    -0.625087055723E+03   -0.18489E-05   -0.13764E-07  4992   0.674E-04    0.641E-04
DAV:  30    -0.625087056663E+03   -0.94059E-06   -0.90368E-08  4992   0.556E-04
  38 F= -.62508706E+03 E0= -.62505388E+03  d E =-.117054E+00  mag=     9.8158
       N       E                     dE             d eps       ncg     rms          rms(c)
DAV:   1    -0.625116682659E+03   -0.29627E-01   -0.44340E+00  7680   0.296E+00    0.471E-01
DAV:   2    -0.625126566526E+03   -0.98839E-02   -0.10720E-01 10416   0.614E-01    0.489E-01
DAV:   3    -0.625126811764E+03   -0.24524E-03   -0.12751E-02 14400   0.218E-01    0.349E-01
DAV:   4    -0.625126539942E+03    0.27182E-03   -0.27364E-03 11904   0.124E-01    0.273E-01
DAV:   5    -0.625126504190E+03    0.35752E-04   -0.18644E-03 13104   0.935E-02    0.232E-01
DAV:   6    -0.625126350436E+03    0.15375E-03   -0.12524E-03 12336   0.710E-02    0.343E-01
DAV:   7    -0.625126281204E+03    0.69232E-04   -0.63843E-04 11808   0.529E-02    0.132E-01
DAV:   8    -0.625126333307E+03   -0.52103E-04   -0.37880E-04 12432   0.344E-02    0.766E-02
DAV:   9    -0.625126338125E+03   -0.48180E-05   -0.13576E-04 11856   0.184E-02    0.494E-02
