       N       E                     dE             d eps       ncg     rms          rms(c)
DAV:   1     0.105981375316E+05    0.10598E+05   -0.27755E+05  7680   0.146E+03
DAV:   2     0.270874057206E+04   -0.78894E+04   -0.65370E+04  8544   0.393E+02
DAV:   3    -0.426544383950E+03   -0.31353E+04   -0.29575E+04 10080   0.229E+02
DAV:   4    -0.829636375019E+03   -0.40309E+03   -0.39812E+03 11472   0.896E+01
DAV:   5    -0.847323537475E+03   -0.17687E+02   -0.17632E+02 13152   0.233E+01    0.158E+02
DAV:   6    -0.140221663927E+04   -0.55489E+03   -0.65519E+03 12960   0.874E+01    0.569E+02
DAV:   7    -0.120731991635E+04    0.19490E+03   -0.70345E+02 11232   0.527E+01    0.490E+02
DAV:   8    -0.129101155988E+04   -0.83692E+02   -0.46313E+02 13056   0.307E+01    0.474E+02
DAV:   9    -0.122623894173E+04    0.64773E+02   -0.76898E+02 11376   0.733E+01    0.477E+02
DAV:  10    -0.144369600365E+04   -0.21746E+03   -0.13090E+03 11616   0.120E+02    0.458E+02
DAV:  11    -0.106657604754E+04    0.37712E+03   -0.23298E+03 12624   0.144E+02    0.362E+02
DAV:  12    -0.641817721045E+03    0.42476E+03   -0.57745E+02 11904   0.947E+01    0.130E+02
DAV:  13    -0.727446237006E+03   -0.85629E+02   -0.15094E+03 12576   0.826E+01    0.263E+02
DAV:  14    -0.616752556889E+03    0.11069E+03   -0.35120E+02 11664   0.817E+01    0.107E+02
DAV:  15    -0.607268965281E+03    0.94836E+01   -0.39161E+02 13248   0.391E+01    0.113E+02
DAV:  16    -0.613782069364E+03   -0.65131E+01   -0.81833E+01 11136   0.390E+01    0.953E+01
DAV:  17    -0.608467647168E+03    0.53144E+01   -0.13541E+02 12816   0.113E+01    0.805E+01
DAV:  18    -0.608706571554E+03   -0.23892E+00   -0.27127E+01 12864   0.919E+00    0.108E+02
DAV:  19    -0.609346829584E+03   -0.64026E+00   -0.75505E+01 10320   0.755E+00    0.102E+02
DAV:  20    -0.609199831710E+03    0.14700E+00   -0.77024E+01 11184   0.102E+01    0.986E+01
DAV:  21    -0.614363977582E+03   -0.51641E+01   -0.96274E+00 13008   0.342E+00    0.101E+02
DAV:  22    -0.623299889364E+03   -0.89359E+01   -0.10114E+01 12768   0.721E+00    0.110E+02
DAV:  23    -0.633644382853E+03   -0.10344E+02   -0.11987E+01 11760   0.678E+00    0.104E+02
DAV:  24    -0.629100296463E+03    0.45441E+01   -0.76619E+00 12912   0.636E+00    0.100E+02
DAV:  25    -0.627145729539E+03    0.19546E+01   -0.27529E+01 12192   0.731E+00    0.973E+01
DAV:  26    -0.627048586391E+03    0.97143E-01   -0.16013E+01 11664   0.634E+00    0.939E+01
DAV:  27    -0.620201095303E+03    0.68475E+01   -0.12712E+01 12192   0.934E+00    0.895E+01
DAV:  28    -0.615314250910E+03    0.48868E+01   -0.25103E+01 12336   0.824E+00    0.731E+01
DAV:  29    -0.617150573409E+03   -0.18363E+01   -0.14492E+01 13296   0.433E+00    0.703E+01
DAV:  30    -0.620875081442E+03   -0.37245E+01   -0.21786E+00 11952   0.273E+00    0.696E+01
DAV:  31    -0.621439145715E+03   -0.56406E+00   -0.39760E-01 10896   0.972E-01    0.696E+01
DAV:  32    -0.621508471622E+03   -0.69326E-01   -0.44177E-02 14016   0.309E-01    0.696E+01
DAV:  33    -0.621685707272E+03   -0.17724E+00   -0.73667E-02 12288   0.301E-01    0.696E+01
DAV:  34    -0.621403995724E+03    0.28171E+00   -0.72027E-01 11904   0.110E+00    0.694E+01
DAV:  35    -0.621639958887E+03   -0.23596E+00   -0.68560E-01 10704   0.925E-01    0.690E+01
DAV:  36    -0.622187349579E+03   -0.54739E+00   -0.94122E-02 10896   0.497E-01    0.689E+01
DAV:  37    -0.623000464273E+03   -0.81311E+00   -0.81740E-01 11472   0.940E-01    0.688E+01
DAV:  38    -0.623131432469E+03   -0.13097E+00   -0.14097E-01 10368   0.514E-01    0.687E+01
DAV:  39    -0.623702674658E+03   -0.57124E+00   -0.88537E-01 11088   0.130E+00    0.680E+01
DAV:  40    -0.623227336590E+03    0.47534E+00   -0.12892E+00 12144   0.193E+00    0.670E+01
DAV:  41    -0.623133386378E+03    0.93950E-01   -0.10587E+00 11856   0.174E+00    0.659E+01
DAV:  42    -0.622319419709E+03    0.81397E+00   -0.67661E+00 12144   0.424E+00    0.637E+01
DAV:  43    -0.622865474374E+03   -0.54605E+00   -0.16430E+00 12432   0.299E+00    0.616E+01
DAV:  44    -0.622685417823E+03    0.18006E+00   -0.14909E+00 12144   0.220E+00    0.601E+01
DAV:  45    -0.622726920884E+03   -0.41503E-01   -0.11165E+00 11040   0.158E+00    0.593E+01
DAV:  46    -0.623100438211E+03   -0.37352E+00   -0.38087E+00 12384   0.343E+00    0.580E+01
DAV:  47    -0.622323405770E+03    0.77703E+00   -0.14501E+00 12000   0.238E+00    0.567E+01
DAV:  48    -0.620109645159E+03    0.22138E+01   -0.14944E+00 11904   0.342E+00    0.547E+01
DAV:  49    -0.619196676901E+03    0.91297E+00   -0.10917E+00 12672   0.210E+00    0.538E+01
DAV:  50    -0.618979615707E+03    0.21706E+00   -0.97602E-02 10608   0.568E-01    0.537E+01
DAV:  51    -0.595712182933E+03    0.23267E+02   -0.26894E+02 11568   0.346E+01    0.129E+02
DAV:  52    -0.583945042599E+03    0.11767E+02   -0.30429E+02 11472   0.614E+01    0.810E+01
DAV:  53    -0.585656179349E+03   -0.17111E+01   -0.13708E+02 11712   0.180E+01    0.644E+01
DAV:  54    -0.599806534190E+03   -0.14150E+02   -0.39047E+01 11808   0.104E+01    0.593E+01
DAV:  55    -0.602477255324E+03   -0.26707E+01   -0.83822E+00 12528   0.519E+00    0.587E+01
DAV:  56    -0.594440508928E+03    0.80367E+01   -0.35191E+01 12672   0.154E+01    0.648E+01
DAV:  57    -0.599713662679E+03   -0.52732E+01   -0.14787E+01 12528   0.815E+00    0.680E+01
DAV:  58    -0.602581734343E+03   -0.28681E+01   -0.11667E+01 12720   0.762E+00    0.628E+01
DAV:  59    -0.607225342015E+03   -0.46436E+01   -0.96123E+00 12144   0.877E+00    0.608E+01
DAV:  60    -0.597798303533E+03    0.94270E+01   -0.30524E+01 11568   0.104E+01    0.617E+01
DAV:  61    -0.549051351055E+03    0.48747E+02   -0.15352E+02 12528   0.296E+01    0.676E+01
DAV:  62    -0.550972415468E+03   -0.19211E+01   -0.59338E+01 12144   0.144E+01    0.772E+01
DAV:  63    -0.548089973999E+03    0.28824E+01   -0.55427E+00 11424   0.382E+00    0.763E+01
DAV:  64    -0.536202465585E+03    0.11888E+02   -0.50012E+00 11520   0.404E+00    0.757E+01
DAV:  65    -0.536802914859E+03   -0.60045E+00   -0.82403E-01 10752   0.127E+00    0.760E+01
DAV:  66    -0.545926550571E+03   -0.91236E+01   -0.39742E+01 11904   0.812E+00    0.689E+01
DAV:  67    -0.539519911554E+03    0.64066E+01   -0.93352E+00 11088   0.532E+00    0.716E+01
DAV:  68    -0.541837443793E+03   -0.23175E+01   -0.12504E+01 11760   0.515E+00    0.683E+01
DAV:  69    -0.539444006248E+03    0.23934E+01   -0.79467E+00 12144   0.699E+00    0.700E+01
DAV:  70    -0.530337352484E+03    0.91067E+01   -0.31341E+00 11952   0.385E+00    0.669E+01
DAV:  71    -0.536306476807E+03   -0.59691E+01   -0.38183E+01 12624   0.140E+01    0.829E+01
DAV:  72    -0.517568090115E+03    0.18738E+02   -0.50699E+01 12384   0.133E+01    0.650E+01
DAV:  73    -0.508963869008E+03    0.86042E+01   -0.15478E+01 12240   0.716E+00    0.624E+01
DAV:  74    -0.492944458431E+03    0.16019E+02   -0.12541E+01 12096   0.754E+00    0.671E+01
DAV:  75    -0.472569702921E+03    0.20375E+02   -0.44957E+00 12048   0.508E+00    0.652E+01
DAV:  76    -0.491613944723E+03   -0.19044E+02   -0.13744E+01 11568   0.832E+00    0.787E+01
DAV:  77    -0.490449753456E+03    0.11642E+01   -0.68569E+00 11424   0.224E+00    0.732E+01
DAV:  78    -0.490586652203E+03   -0.13690E+00   -0.19915E+00 12192   0.117E+00    0.748E+01
DAV:  79    -0.490163286386E+03    0.42337E+00   -0.19904E-01 11136   0.777E-01    0.739E+01
DAV:  80    -0.486398319359E+03    0.37650E+01   -0.34452E+00 10656   0.296E+00    0.729E+01
DAV:  81    -0.602458033166E+03   -0.11606E+03   -0.23671E+02 11712   0.217E+01    0.544E+01
DAV:  82    -0.619723908929E+03   -0.17266E+02   -0.64913E+01 12144   0.176E+01    0.437E+01
DAV:  83    -0.624411230724E+03   -0.46873E+01   -0.39592E+01 13344   0.118E+01    0.403E+01
DAV:  84    -0.621572907459E+03    0.28383E+01   -0.30027E+01 12816   0.754E+00    0.361E+01
DAV:  85    -0.622253512513E+03   -0.68061E+00   -0.47406E+00 12672   0.483E+00    0.340E+01
DAV:  86    -0.624113234925E+03   -0.18597E+01   -0.84554E+00 13584   0.674E+00    0.354E+01
DAV:  87    -0.621402130725E+03    0.27111E+01   -0.22957E+00 12672   0.412E+00    0.356E+01
DAV:  88    -0.618761780349E+03    0.26404E+01   -0.16295E+00 12672   0.316E+00    0.348E+01
DAV:  89    -0.613778328496E+03    0.49835E+01   -0.59575E+00 12144   0.577E+00    0.346E+01
DAV:  90    -0.610999694631E+03    0.27786E+01   -0.81949E+00 12480   0.576E+00
   1 F= -.61099969E+03 E0= -.61097574E+03  d E =-.611000E+03  mag=    21.6580
       N       E                     dE             d eps       ncg     rms          rms(c)
DAV:   1    -0.606420973522E+03    0.73574E+01   -0.40186E+02  9984   0.307E+01    0.328E+01
DAV:   2    -0.648210688747E+03   -0.41790E+02   -0.54354E+02 12528   0.492E+01    0.480E+01
DAV:   3    -0.641351665868E+03    0.68590E+01   -0.88181E+01 12336   0.174E+01    0.250E+01
DAV:   4    -0.632463659237E+03    0.88880E+01   -0.32004E+01 11664   0.110E+01    0.177E+01
DAV:   5    -0.633215382153E+03   -0.75172E+00   -0.45726E+01 10848   0.744E+00    0.355E+01
DAV:   6    -0.628396668750E+03    0.48187E+01   -0.11238E+01 12960   0.491E+00    0.170E+01
DAV:   7    -0.627699935209E+03    0.69673E+00   -0.55791E+00 11664   0.479E+00    0.119E+01
DAV:   8    -0.627928780674E+03   -0.22885E+00   -0.56460E+00 12240   0.467E+00    0.115E+01
DAV:   9    -0.628322644678E+03   -0.39386E+00   -0.41593E+00 12192   0.330E+00    0.107E+01
DAV:  10    -0.628483582854E+03   -0.16094E+00   -0.11501E+00 11904   0.248E+00    0.859E+00
DAV:  11    -0.628840887547E+03   -0.35730E+00   -0.76216E+00 11424   0.412E+00    0.154E+01
DAV:  12    -0.628842453002E+03   -0.15655E-02   -0.13180E+00 12000   0.218E+00    0.127E+01
DAV:  13    -0.628756627288E+03    0.85826E-01   -0.19787E-01 11328   0.776E-01    0.125E+01
DAV:  14    -0.628721864352E+03    0.34763E-01   -0.10641E-01 12432   0.402E-01    0.108E+01
DAV:  15    -0.628752859508E+03   -0.30995E-01   -0.27157E-01 11232   0.110E+00    0.106E+01
DAV:  16    -0.628922859490E+03   -0.17000E+00   -0.79666E-01 11568   0.142E+00    0.127E+01
DAV:  17    -0.629097121524E+03   -0.17426E+00   -0.98391E-01 11136   0.124E+00    0.146E+01
DAV:  18    -0.629088590165E+03    0.85314E-02   -0.70006E-01 12624   0.846E-01    0.146E+01
DAV:  19    -0.628897125029E+03    0.19147E+00   -0.49766E-01 11184   0.114E+00    0.101E+01
DAV:  20    -0.629033736498E+03   -0.13661E+00   -0.18685E+00 11376   0.179E+00    0.797E+00
DAV:  21    -0.629154383984E+03   -0.12065E+00   -0.88296E-01 12576   0.120E+00    0.853E+00
DAV:  22    -0.629216858143E+03   -0.62474E-01   -0.43833E-01 11280   0.125E+00    0.721E+00
DAV:  23    -0.629306490550E+03   -0.89632E-01   -0.37925E-01 12192   0.892E-01    0.614E+00
DAV:  24    -0.629348565366E+03   -0.42075E-01   -0.17050E-01 12336   0.687E-01    0.701E+00
DAV:  25    -0.629359513695E+03   -0.10948E-01   -0.92517E-02 11184   0.557E-01    0.628E+00
DAV:  26    -0.629392301523E+03   -0.32788E-01   -0.49052E-02 11184   0.409E-01    0.519E+00
DAV:  27    -0.629467137085E+03   -0.74836E-01   -0.37117E-01 12048   0.783E-01    0.455E+00
DAV:  28    -0.629480618640E+03   -0.13482E-01   -0.62213E-02 11904   0.441E-01    0.416E+00
DAV:  29    -0.629496645949E+03   -0.16027E-01   -0.76285E-02 11520   0.447E-01    0.325E+00
DAV:  30    -0.629527775004E+03   -0.31129E-01   -0.44071E-02 11280   0.370E-01    0.338E+00
DAV:  31    -0.629557926741E+03   -0.30152E-01   -0.53457E-02 11856   0.368E-01    0.286E+00
DAV:  32    -0.629597618670E+03   -0.39692E-01   -0.58523E-02 11952   0.299E-01    0.288E+00
DAV:  33    -0.629588837356E+03    0.87813E-02   -0.46980E-03 10992   0.107E-01    0.281E+00
DAV:  34    -0.629594295317E+03   -0.54580E-02   -0.34382E-03 11232   0.921E-02    0.275E+00
DAV:  35    -0.629607356119E+03   -0.13061E-01   -0.12225E-02 11280   0.116E-01    0.304E+00
DAV:  36    -0.629614195551E+03   -0.68394E-02   -0.12732E-02 11424   0.191E-01    0.282E+00
DAV:  37    -0.629656243757E+03   -0.42048E-01   -0.10479E-01 11424   0.503E-01    0.520E+00
DAV:  38    -0.629635924506E+03    0.20319E-01   -0.65680E-02 12000   0.423E-01    0.510E+00
DAV:  39    -0.629610331531E+03    0.25593E-01   -0.21596E-01 10992   0.399E-01    0.420E+00
DAV:  40    -0.629631610048E+03   -0.21279E-01   -0.41764E-02 11424   0.282E-01    0.417E+00
DAV:  41    -0.629635635476E+03   -0.40254E-02   -0.80664E-03 10320   0.151E-01    0.364E+00
DAV:  42    -0.629698727694E+03   -0.63092E-01   -0.94107E-02 11232   0.509E-01    0.501E+00
DAV:  43    -0.629704753156E+03   -0.60255E-02   -0.95841E-02 11568   0.436E-01    0.434E+00
DAV:  44    -0.629722864104E+03   -0.18111E-01   -0.79125E-02 11280   0.384E-01    0.230E+00
DAV:  45    -0.629740798502E+03   -0.17934E-01   -0.65628E-02 10320   0.342E-01    0.302E+00
DAV:  46    -0.629728725970E+03    0.12073E-01   -0.16426E-02 11184   0.214E-01    0.256E+00
DAV:  47    -0.629702482079E+03    0.26244E-01   -0.97042E-02 10704   0.419E-01    0.275E+00
DAV:  48    -0.629671285342E+03    0.31197E-01   -0.33901E-02  9360   0.237E-01    0.306E+00
DAV:  49    -0.629628119507E+03    0.43166E-01   -0.23384E-02 10704   0.207E-01    0.325E+00
DAV:  50    -0.629632909635E+03   -0.47901E-02   -0.14531E-03  9024   0.700E-02    0.326E+00
DAV:  51    -0.629651604406E+03   -0.18695E-01   -0.44142E-03 10272   0.965E-02    0.321E+00
DAV:  52    -0.629700327367E+03   -0.48723E-01   -0.79479E-02 10224   0.347E-01    0.228E+00
DAV:  53    -0.629750008869E+03   -0.49682E-01   -0.57193E-02 10128   0.269E-01    0.215E+00
DAV:  54    -0.629832359649E+03   -0.82351E-01   -0.34848E-01 10608   0.595E-01    0.219E+00
DAV:  55    -0.629871873053E+03   -0.39513E-01   -0.89234E-02 10896   0.385E-01    0.167E+00
DAV:  56    -0.629921948757E+03   -0.50076E-01   -0.19019E-01 10608   0.525E-01    0.110E+00
DAV:  57    -0.629962237087E+03   -0.40288E-01   -0.19061E-01 11184   0.379E-01    0.338E+00
DAV:  58    -0.629972292862E+03   -0.10056E-01   -0.19474E-02 10128   0.174E-01    0.470E+00
DAV:  59    -0.629968051585E+03    0.42413E-02   -0.17093E-03 10224   0.689E-02    0.491E+00
DAV:  60    -0.629970783731E+03   -0.27321E-02   -0.15551E-03 11184   0.514E-02    0.475E+00
DAV:  61    -0.629966305371E+03    0.44784E-02   -0.10050E-02 10128   0.829E-02    0.358E+00
DAV:  62    -0.630019780611E+03   -0.53475E-01   -0.16197E-01 10320   0.466E-01    0.585E+00
DAV:  63    -0.630012619217E+03    0.71614E-02   -0.98888E-03  9984   0.152E-01    0.556E+00
DAV:  64    -0.630015031432E+03   -0.24122E-02   -0.13840E-03 12048   0.485E-02    0.578E+00
DAV:  65    -0.630014027958E+03    0.10035E-02   -0.16669E-03 11232   0.504E-02    0.572E+00
DAV:  66    -0.629999758187E+03    0.14270E-01   -0.10736E-02 11760   0.120E-01    0.487E+00
DAV:  67    -0.630006299364E+03   -0.65412E-02   -0.36521E-02 11808   0.193E-01    0.355E+00
DAV:  68    -0.630011971082E+03   -0.56717E-02   -0.34619E-02 11904   0.202E-01    0.207E+00
DAV:  69    -0.630018794366E+03   -0.68233E-02   -0.12386E-01 10896   0.271E-01    0.159E+00
DAV:  70    -0.630020306238E+03   -0.15119E-02   -0.92220E-03 10368   0.161E-01    0.142E+00
DAV:  71    -0.630019633404E+03    0.67283E-03   -0.42543E-02 10320   0.198E-01    0.108E+00
DAV:  72    -0.630015356485E+03    0.42769E-02   -0.67257E-02 10848   0.299E-01    0.199E+00
DAV:  73    -0.630016707650E+03   -0.13512E-02   -0.44239E-03 10032   0.105E-01    0.162E+00
DAV:  74    -0.630022796679E+03   -0.60890E-02   -0.67562E-03 10080   0.849E-02    0.121E+00
DAV:  75    -0.630025619006E+03   -0.28223E-02   -0.30522E-03 10128   0.595E-02    0.107E+00
DAV:  76    -0.630027920132E+03   -0.23011E-02   -0.17234E-03 11136   0.472E-02    0.102E+00
DAV:  77    -0.630034754605E+03   -0.68345E-02   -0.21466E-02 10992   0.200E-01    0.930E-01
DAV:  78    -0.630044533135E+03   -0.97785E-02   -0.56895E-03 10704   0.114E-01    0.827E-01
DAV:  79    -0.630050661315E+03   -0.61282E-02   -0.11441E-02 10368   0.956E-02    0.862E-01
DAV:  80    -0.630053063164E+03   -0.24018E-02   -0.21810E-03 11760   0.745E-02    0.893E-01
DAV:  81    -0.630060683934E+03   -0.76208E-02   -0.55741E-03 10608   0.875E-02    0.940E-01
DAV:  82    -0.630065953419E+03   -0.52695E-02   -0.19593E-02 11088   0.175E-01    0.119E+00
DAV:  83    -0.630069098676E+03   -0.31453E-02   -0.22696E-02 10752   0.158E-01    0.896E-01
DAV:  84    -0.630073072232E+03   -0.39736E-02   -0.44789E-03 11328   0.729E-02    0.791E-01
DAV:  85    -0.630077095468E+03   -0.40232E-02   -0.61567E-03 11520   0.794E-02    0.881E-01
DAV:  86    -0.630083137286E+03   -0.60418E-02   -0.73816E-03 11136   0.120E-01    0.123E+00
DAV:  87    -0.630085985340E+03   -0.28481E-02   -0.18794E-02  9648   0.129E-01    0.491E-01
DAV:  88    -0.630090885684E+03   -0.49003E-02   -0.15882E-02 10368   0.119E-01    0.625E-01
DAV:  89    -0.630097432626E+03   -0.65469E-02   -0.16306E-02 10800   0.117E-01    0.423E-01
DAV:  90    -0.630099036513E+03   -0.16039E-02   -0.22456E-03 11616   0.510E-02
   2 F= -.63009904E+03 E0= -.63006654E+03  d E =-.190993E+02  mag=    21.2239
       N       E                     dE             d eps       ncg     rms          rms(c)
DAV:   1    -0.630100666597E+03   -0.32340E-02   -0.38373E-03  8448   0.893E-02    0.411E-01
DAV:   2    -0.630112778294E+03   -0.12112E-01   -0.93673E-02 11520   0.275E-01    0.196E+00
DAV:   3    -0.630108594401E+03    0.41839E-02   -0.62653E-03 10992   0.141E-01    0.156E+00
DAV:   4    -0.630108475203E+03    0.11920E-03   -0.74910E-04  9888   0.427E-02    0.151E+00
DAV:   5    -0.630108894772E+03   -0.41957E-03   -0.83692E-04 11280   0.492E-02    0.134E+00
DAV:   6    -0.630109259147E+03   -0.36438E-03   -0.19667E-04 11136   0.224E-02    0.142E+00
DAV:   7    -0.630110127116E+03   -0.86797E-03   -0.44086E-03 10176   0.103E-01    0.186E+00
DAV:   8    -0.630108370979E+03    0.17561E-02   -0.10799E-02 11520   0.115E-01    0.118E+00
DAV:   9    -0.630111601333E+03   -0.32304E-02   -0.15662E-02 10896   0.130E-01    0.701E-01
DAV:  10    -0.630114931031E+03   -0.33297E-02   -0.78494E-03 11472   0.110E-01    0.130E+00
DAV:  11    -0.630117025168E+03   -0.20941E-02   -0.20772E-02 11328   0.156E-01    0.664E-01
DAV:  12    -0.630117761011E+03   -0.73584E-03   -0.20603E-03 11184   0.626E-02    0.232E-01
DAV:  13    -0.630119295616E+03   -0.15346E-02   -0.29535E-03 11712   0.553E-02    0.175E-01
DAV:  14    -0.630120555209E+03   -0.12596E-02   -0.22843E-03 11712   0.415E-02    0.281E-01
DAV:  15    -0.630123195550E+03   -0.26403E-02   -0.11086E-02 11136   0.782E-02    0.217E-01
DAV:  16    -0.630125143114E+03   -0.19476E-02   -0.62010E-03 11520   0.609E-02    0.145E-01
DAV:  17    -0.630125491728E+03   -0.34861E-03   -0.26461E-04 12288   0.159E-02    0.146E-01
DAV:  18    -0.630123426562E+03    0.20652E-02   -0.64587E-03 11232   0.615E-02    0.153E-01
DAV:  19    -0.630122840676E+03    0.58589E-03   -0.70944E-04 11616   0.219E-02    0.154E-01
DAV:  20    -0.630125583614E+03   -0.27429E-02   -0.11927E-02 11328   0.824E-02    0.165E-01
DAV:  21    -0.630124902150E+03    0.68146E-03   -0.72669E-04 11280   0.239E-02    0.168E-01
DAV:  22    -0.630127218241E+03   -0.23161E-02   -0.87144E-03 11184   0.715E-02    0.181E-01
DAV:  23    -0.630133988094E+03   -0.67699E-02   -0.85274E-02 11040   0.217E-01    0.239E-01
DAV:  24    -0.630144329440E+03   -0.10341E-01   -0.23772E-01 10992   0.362E-01    0.183E-01
DAV:  25    -0.630147927737E+03   -0.35983E-02   -0.16901E-02 11904   0.106E-01    0.177E-01
DAV:  26    -0.630148847149E+03   -0.91941E-03   -0.15091E-03 13008   0.329E-02    0.185E-01
DAV:  27    -0.630147056228E+03    0.17909E-02   -0.58732E-03 11088   0.612E-02    0.174E-01
DAV:  28    -0.630148087384E+03   -0.10312E-02   -0.19460E-03 11856   0.435E-02    0.277E-01
DAV:  29    -0.630149275712E+03   -0.11883E-02   -0.28179E-03 11712   0.409E-02    0.253E-01
DAV:  30    -0.630152048293E+03   -0.27726E-02   -0.14013E-02 11184   0.899E-02    0.177E-01
DAV:  31    -0.630160649906E+03   -0.86016E-02   -0.16969E-01 10800   0.305E-01    0.220E-01
DAV:  32    -0.630162372418E+03   -0.17225E-02   -0.45026E-03 12192   0.669E-02    0.195E-01
DAV:  33    -0.630167493140E+03   -0.51207E-02   -0.58707E-02 11040   0.199E-01    0.347E-01
DAV:  34    -0.630167704156E+03   -0.21102E-03   -0.75187E-04 10944   0.348E-02    0.346E-01
DAV:  35    -0.630166449716E+03    0.12544E-02   -0.30953E-03 11472   0.429E-02    0.364E-01
DAV:  36    -0.630164261130E+03    0.21886E-02   -0.96046E-03 11088   0.740E-02    0.380E-01
DAV:  37    -0.630166139288E+03   -0.18782E-02   -0.66344E-03 11232   0.635E-02    0.357E-01
DAV:  38    -0.630173640211E+03   -0.75009E-02   -0.13442E-01 10992   0.277E-01    0.479E-01
DAV:  39    -0.630177743468E+03   -0.41033E-02   -0.34836E-02 11904   0.142E-01    0.578E-01
DAV:  40    -0.630174802070E+03    0.29414E-02   -0.19776E-02 11280   0.116E-01    0.501E-01
DAV:  41    -0.630175320719E+03   -0.51865E-03   -0.52734E-04 12000   0.285E-02    0.626E-01
DAV:  42    -0.630168919045E+03    0.64017E-02   -0.79086E-02 10800   0.218E-01    0.651E-01
DAV:  43    -0.630165141845E+03    0.37772E-02   -0.38806E-02 11712   0.149E-01    0.842E-01
DAV:  44    -0.630166770025E+03   -0.16282E-02   -0.47207E-03 11136   0.609E-02    0.847E-01
DAV:  45    -0.630169440423E+03   -0.26704E-02   -0.14824E-02 11280   0.956E-02    0.915E-01
DAV:  46    -0.630165713323E+03    0.37271E-02   -0.24677E-02 11232   0.128E-01    0.784E-01
DAV:  47    -0.630169320310E+03   -0.36070E-02   -0.27686E-02 10848   0.127E-01    0.724E-01
DAV:  48    -0.630168920361E+03    0.39995E-03   -0.83211E-04 11280   0.372E-02    0.679E-01
DAV:  49    -0.630170787788E+03   -0.18674E-02   -0.89340E-03 11040   0.720E-02    0.737E-01
DAV:  50    -0.630173646451E+03   -0.28587E-02   -0.29637E-02 11088   0.132E-01    0.792E-01
DAV:  51    -0.630177327555E+03   -0.36811E-02   -0.36493E-02 11184   0.145E-01    0.834E-01
DAV:  52    -0.630177199404E+03    0.12815E-03   -0.45105E-03 11520   0.557E-02    0.699E-01
DAV:  53    -0.630177352854E+03   -0.15345E-03   -0.14146E-04 12048   0.128E-02    0.715E-01
DAV:  54    -0.630177159967E+03    0.19289E-03   -0.11206E-04 11808   0.102E-02    0.720E-01
DAV:  55    -0.630174478606E+03    0.26814E-02   -0.15294E-02 11136   0.939E-02    0.725E-01
DAV:  56    -0.630173600945E+03    0.87766E-03   -0.25702E-03 11904   0.399E-02    0.709E-01
DAV:  57    -0.630173236967E+03    0.36398E-03   -0.19570E-03 11328   0.401E-02    0.898E-01
DAV:  58    -0.630175168112E+03   -0.19311E-02   -0.86407E-03 11184   0.730E-02    0.971E-01
DAV:  59    -0.630173768067E+03    0.14000E-02   -0.10758E-02 10656   0.776E-02    0.947E-01
DAV:  60    -0.630177010934E+03   -0.32429E-02   -0.26767E-02 11520   0.131E-01    0.915E-01
DAV:  61    -0.630178334810E+03   -0.13239E-02   -0.48697E-03 11568   0.572E-02    0.120E+00
DAV:  62    -0.630154309249E+03    0.24026E-01   -0.88249E-01 11184   0.761E-01    0.912E-01
DAV:  63    -0.630168279075E+03   -0.13970E-01   -0.27722E-01 11424   0.392E-01    0.469E-01
DAV:  64    -0.630170189047E+03   -0.19100E-02   -0.12415E-02 11232   0.103E-01    0.642E-01
DAV:  65    -0.630171707198E+03   -0.15182E-02   -0.73867E-03 11760   0.687E-02    0.492E-01
DAV:  66    -0.630173143269E+03   -0.14361E-02   -0.11832E-02 10464   0.817E-02    0.748E-01
DAV:  67    -0.630170360595E+03    0.27827E-02   -0.26468E-02 11184   0.148E-01    0.108E+00
DAV:  68    -0.630170338519E+03    0.22076E-04   -0.45132E-04 10080   0.319E-02    0.101E+00
DAV:  69    -0.630168858666E+03    0.14799E-02   -0.56719E-03 11424   0.549E-02    0.110E+00
DAV:  70    -0.630168320809E+03    0.53786E-03   -0.73114E-04 12288   0.233E-02    0.884E-01
DAV:  71    -0.630161935947E+03    0.63849E-02   -0.11074E-01 10848   0.260E-01    0.139E+00
DAV:  72    -0.630155315404E+03    0.66205E-02   -0.59939E-02 12000   0.192E-01    0.906E-01
DAV:  73    -0.630144228709E+03    0.11087E-01   -0.23351E-01 11232   0.384E-01    0.137E+00
DAV:  74    -0.630144932434E+03   -0.70372E-03   -0.27944E-03 10848   0.707E-02    0.127E+00
DAV:  75    -0.630144436467E+03    0.49597E-03   -0.40546E-03 12288   0.542E-02    0.146E+00
DAV:  76    -0.630146087557E+03   -0.16511E-02   -0.13152E-02 11520   0.895E-02    0.108E+00
DAV:  77    -0.630164747070E+03   -0.18660E-01   -0.10551E+00 10944   0.762E-01    0.419E-01
DAV:  78    -0.630168225205E+03   -0.34781E-02   -0.13591E-02 10800   0.124E-01    0.679E-01
DAV:  79    -0.630171857889E+03   -0.36327E-02   -0.34640E-02 12144   0.136E-01    0.475E-01
DAV:  80    -0.630171987593E+03   -0.12970E-03   -0.48524E-04 11712   0.256E-02    0.486E-01
DAV:  81    -0.630172137804E+03   -0.15021E-03   -0.92473E-05 13776   0.905E-03    0.485E-01
DAV:  82    -0.630170031334E+03    0.21065E-02   -0.99542E-03 11568   0.795E-02    0.581E-01
DAV:  83    -0.630169967649E+03    0.63685E-04   -0.11396E-04  9888   0.159E-02    0.569E-01
DAV:  84    -0.630170418812E+03   -0.45116E-03   -0.34485E-04 11376   0.148E-02    0.758E-01
DAV:  85    -0.630172907361E+03   -0.24885E-02   -0.89773E-03 10608   0.733E-02    0.116E+00
DAV:  86    -0.630172037082E+03    0.87028E-03   -0.64743E-04 11328   0.266E-02    0.110E+00
DAV:  87    -0.630166788277E+03    0.52488E-02   -0.40117E-02 11616   0.147E-01    0.375E-01
DAV:  88    -0.630168450677E+03   -0.16624E-02   -0.31894E-03 11568   0.575E-02    0.406E-01
DAV:  89    -0.630168803493E+03   -0.35282E-03   -0.28470E-04 12096   0.186E-02    0.430E-01
DAV:  90    -0.630168966369E+03   -0.16288E-03   -0.10072E-04 11136   0.929E-03
   3 F= -.63016897E+03 E0= -.63013700E+03  d E =-.191693E+02  mag=    21.2453
       N       E                     dE             d eps       ncg     rms          rms(c)
DAV:   1    -0.630162536428E+03    0.62671E-02   -0.14873E+01  7680   0.557E+00    0.162E+00
DAV:   2    -0.630230742734E+03   -0.68206E-01   -0.60278E-01 12336   0.145E+00    0.419E+00
DAV:   3    -0.630230832414E+03   -0.89679E-04   -0.50137E-02 12720   0.360E-01    0.398E+00
DAV:   4    -0.630223586179E+03    0.72462E-02   -0.55719E-02 10848   0.437E-01    0.288E+00
DAV:   5    -0.630228249646E+03   -0.46635E-02   -0.27617E-02 13344   0.346E-01    0.254E+00
DAV:   6    -0.630225397688E+03    0.28520E-02   -0.40651E-02 11712   0.360E-01    0.203E+00
DAV:   7    -0.630232675567E+03   -0.72779E-02   -0.37849E-02 13344   0.300E-01    0.264E+00
DAV:   8    -0.630227156752E+03    0.55188E-02   -0.14468E-02 11040   0.271E-01    0.343E-01
DAV:   9    -0.630231775099E+03   -0.46183E-02   -0.95139E-03 12816   0.149E-01    0.569E-01
DAV:  10    -0.630232461963E+03   -0.68686E-03   -0.27370E-03 12720   0.850E-02    0.300E-01
DAV:  11    -0.630233112566E+03   -0.65060E-03   -0.13691E-03 12192   0.570E-02    0.238E-01
DAV:  12    -0.630234744637E+03   -0.16321E-02   -0.42569E-03 11904   0.712E-02    0.230E-01
DAV:  13    -0.630237019005E+03   -0.22744E-02   -0.74661E-03 12432   0.757E-02    0.188E-01
DAV:  14    -0.630239089971E+03   -0.20710E-02   -0.62661E-03 11472   0.651E-02    0.157E-01
DAV:  15    -0.630241911724E+03   -0.28218E-02   -0.11315E-02 11568   0.826E-02    0.158E-01
DAV:  16    -0.630243908243E+03   -0.19965E-02   -0.60317E-03 11616   0.624E-02    0.151E-01
DAV:  17    -0.630244845011E+03   -0.93677E-03   -0.13931E-03 11712   0.309E-02    0.146E-01
DAV:  18    -0.630244272007E+03    0.57300E-03   -0.45881E-04 11808   0.190E-02    0.154E-01
DAV:  19    -0.630245901342E+03   -0.16293E-02   -0.38464E-03 11136   0.482E-02    0.158E-01
DAV:  20    -0.630247300302E+03   -0.13990E-02   -0.31514E-03 11520   0.442E-02    0.164E-01
DAV:  21    -0.630247754104E+03   -0.45380E-03   -0.38270E-04 11808   0.163E-02    0.164E-01
DAV:  22    -0.630245642658E+03    0.21114E-02   -0.62797E-03 10992   0.628E-02    0.154E-01
DAV:  23    -0.630246201380E+03   -0.55872E-03   -0.33963E-04 11040   0.175E-02    0.154E-01
DAV:  24    -0.630248298874E+03   -0.20975E-02   -0.68451E-03 11184   0.672E-02    0.151E-01
DAV:  25    -0.630253826989E+03   -0.55281E-02   -0.54567E-02 10752   0.181E-01    0.195E-01
DAV:  26    -0.630267245913E+03   -0.13419E-01   -0.44748E-01 10464   0.516E-01    0.512E-01
DAV:  27    -0.630269154355E+03   -0.19084E-02   -0.48889E-03 10224   0.904E-02    0.410E-01
DAV:  28    -0.630269490735E+03   -0.33638E-03   -0.51296E-04 13728   0.233E-02    0.421E-01
DAV:  29    -0.630269462570E+03    0.28165E-04   -0.36582E-05 11808   0.594E-03    0.405E-01
DAV:  30    -0.630266913880E+03    0.25487E-02   -0.13331E-02 10752   0.993E-02    0.383E-01
DAV:  31    -0.630265644632E+03    0.12692E-02   -0.89105E-03 10752   0.104E-01    0.692E-01
DAV:  32    -0.630260742303E+03    0.49023E-02   -0.40926E-02 10896   0.170E-01    0.605E-01
DAV:  33    -0.630259148609E+03    0.15937E-02   -0.76599E-03 11472   0.840E-02    0.565E-01
DAV:  34    -0.630259559187E+03   -0.41058E-03   -0.56464E-04 11520   0.335E-02    0.726E-01
DAV:  35    -0.630259615298E+03   -0.56111E-04   -0.16982E-04 11280   0.199E-02    0.661E-01
DAV:  36    -0.630260738649E+03   -0.11234E-02   -0.24458E-03 10608   0.490E-02    0.720E-01
DAV:  37    -0.630261864184E+03   -0.11255E-02   -0.26156E-03 10992   0.500E-02    0.775E-01
DAV:  38    -0.630261888638E+03   -0.24454E-04   -0.43302E-05 10224   0.118E-02    0.775E-01
DAV:  39    -0.630262049581E+03   -0.16094E-03   -0.54957E-05 10368   0.714E-03    0.789E-01
DAV:  40    -0.630261837337E+03    0.21224E-03   -0.77149E-05  9792   0.801E-03    0.781E-01
DAV:  41    -0.630261629572E+03    0.20777E-03   -0.59629E-04 10368   0.254E-02    0.761E-01
DAV:  42    -0.630260746768E+03    0.88280E-03   -0.19352E-03 10512   0.485E-02    0.683E-01
DAV:  43    -0.630261574781E+03   -0.82801E-03   -0.36664E-03 10896   0.619E-02    0.644E-01
DAV:  44    -0.630262643386E+03   -0.10686E-02   -0.53479E-03 10656   0.713E-02    0.704E-01
DAV:  45    -0.630262401884E+03    0.24150E-03   -0.21950E-04 10800   0.208E-02    0.703E-01
DAV:  46    -0.630262760135E+03   -0.35825E-03   -0.52595E-04 10320   0.238E-02    0.708E-01
DAV:  47    -0.630263581892E+03   -0.82176E-03   -0.20064E-03 10464   0.420E-02    0.740E-01
DAV:  48    -0.630263828722E+03   -0.24683E-03   -0.20356E-04 10560   0.153E-02    0.725E-01
DAV:  49    -0.630265412379E+03   -0.15837E-02   -0.99712E-03 10128   0.987E-02    0.723E-01
DAV:  50    -0.630265727588E+03   -0.31521E-03   -0.63745E-04 10176   0.309E-02    0.744E-01
DAV:  51    -0.630265461047E+03    0.26654E-03   -0.13784E-03 11184   0.389E-02    0.762E-01
DAV:  52    -0.630268541466E+03   -0.30804E-02   -0.20818E-02 11040   0.108E-01    0.813E-01
DAV:  53    -0.630268744453E+03   -0.20299E-03   -0.33939E-04 11040   0.188E-02    0.842E-01
DAV:  54    -0.630269483770E+03   -0.73932E-03   -0.12902E-03 10896   0.343E-02    0.902E-01
DAV:  55    -0.630269251847E+03    0.23192E-03   -0.10241E-04 11088   0.121E-02    0.893E-01
DAV:  56    -0.630269285754E+03   -0.33907E-04   -0.16176E-03 10800   0.401E-02    0.953E-01
DAV:  57    -0.630264682332E+03    0.46034E-02   -0.50132E-02 10176   0.209E-01    0.762E-01
DAV:  58    -0.630267538147E+03   -0.28558E-02   -0.16223E-02 10608   0.115E-01    0.673E-01
DAV:  59    -0.630271559811E+03   -0.40217E-02   -0.45234E-02 10848   0.163E-01    0.688E-01
DAV:  60    -0.630271966826E+03   -0.40701E-03   -0.10268E-03 10416   0.345E-02    0.708E-01
DAV:  61    -0.630271747316E+03    0.21951E-03   -0.61098E-04  9744   0.263E-02    0.676E-01
DAV:  62    -0.630263226555E+03    0.85208E-02   -0.15344E-01 10608   0.327E-01    0.876E-01
DAV:  63    -0.630263914424E+03   -0.68787E-03   -0.38052E-03 10896   0.783E-02    0.654E-01
DAV:  64    -0.630263865598E+03    0.48825E-04   -0.10371E-03 11232   0.330E-02    0.613E-01
DAV:  65    -0.630263405289E+03    0.46031E-03   -0.38806E-03  9792   0.589E-02    0.588E-01
DAV:  66    -0.630260872134E+03    0.25332E-02   -0.20117E-02 10464   0.120E-01    0.585E-01
DAV:  67    -0.630260547805E+03    0.32433E-03   -0.28274E-02  9792   0.183E-01    0.683E-01
DAV:  68    -0.630261256100E+03   -0.70829E-03   -0.16235E-03 10800   0.566E-02    0.724E-01
DAV:  69    -0.630260040081E+03    0.12160E-02   -0.28419E-03 11904   0.422E-02    0.745E-01
DAV:  70    -0.630261577680E+03   -0.15376E-02   -0.54213E-03 11424   0.562E-02    0.736E-01
DAV:  71    -0.630262913720E+03   -0.13360E-02   -0.45368E-03 11280   0.525E-02    0.814E-01
DAV:  72    -0.630270785173E+03   -0.78715E-02   -0.47158E-01 10128   0.605E-01    0.228E+00
DAV:  73    -0.630271381406E+03   -0.59623E-03   -0.48892E-03  9312   0.111E-01    0.225E+00
DAV:  74    -0.630271203943E+03    0.17746E-03   -0.13034E-03 12720   0.374E-02    0.223E+00
DAV:  75    -0.630269683990E+03    0.15200E-02   -0.50634E-03 11376   0.533E-02    0.219E+00
DAV:  76    -0.630271504142E+03   -0.18202E-02   -0.95213E-03 10944   0.773E-02    0.211E+00
DAV:  77    -0.630273470101E+03   -0.19660E-02   -0.17795E-02 10992   0.114E-01    0.191E+00
DAV:  78    -0.630278527887E+03   -0.50578E-02   -0.90792E-02 10896   0.221E-01    0.164E+00
DAV:  79    -0.630283083998E+03   -0.45561E-02   -0.61075E-02 11520   0.182E-01    0.175E+00
DAV:  80    -0.630283588286E+03   -0.50429E-03   -0.15464E-03 11616   0.402E-02    0.178E+00
DAV:  81    -0.630282987872E+03    0.60041E-03   -0.13443E-03 11712   0.312E-02    0.177E+00
DAV:  82    -0.630286514031E+03   -0.35262E-02   -0.17393E-01 10272   0.412E-01    0.549E-01
DAV:  83    -0.630289075030E+03   -0.25610E-02   -0.51624E-03  9456   0.114E-01    0.660E-01
DAV:  84    -0.630290087803E+03   -0.10128E-02   -0.27097E-03 11808   0.582E-02    0.789E-01
DAV:  85    -0.630291459553E+03   -0.13717E-02   -0.86405E-03 10848   0.767E-02    0.964E-01
DAV:  86    -0.630291349160E+03    0.11039E-03   -0.14529E-03 12432   0.571E-02    0.108E+00
DAV:  87    -0.630287344764E+03    0.40044E-02   -0.12121E-01  9888   0.312E-01    0.641E-01
DAV:  88    -0.630290661161E+03   -0.33164E-02   -0.14586E-02 11040   0.115E-01    0.600E-01
DAV:  89    -0.630295493549E+03   -0.48324E-02   -0.99870E-02 10752   0.242E-01    0.882E-01
DAV:  90    -0.630295282308E+03    0.21124E-03   -0.55870E-03 10560   0.842E-02
   4 F= -.63029528E+03 E0= -.63026363E+03  d E =-.192956E+02  mag=    21.1487
       N       E                     dE             d eps       ncg     rms          rms(c)
DAV:   1    -0.630057416201E+03    0.23808E+00   -0.19553E+02  8448   0.202E+01    0.546E+00
DAV:   2    -0.630660031037E+03   -0.60261E+00   -0.69840E+00 12528   0.476E+00    0.580E+00
DAV:   3    -0.630646136846E+03    0.13894E-01   -0.60285E-01 11712   0.160E+00    0.601E+00
DAV:   4    -0.630708406455E+03   -0.62270E-01   -0.44440E-01 10992   0.132E+00    0.697E+00
DAV:   5    -0.630638377578E+03    0.70029E-01   -0.12568E-01 10560   0.652E-01    0.355E+00
DAV:   6    -0.630966514771E+03   -0.32814E+00   -0.31768E+00 11088   0.211E+00    0.597E+00
DAV:   7    -0.630815224910E+03    0.15129E+00   -0.26287E-01 12240   0.109E+00    0.536E+00
DAV:   8    -0.630695455310E+03    0.11977E+00   -0.12232E-01 11664   0.818E-01    0.471E+00
DAV:   9    -0.630691985492E+03    0.34698E-02   -0.67023E-02 12000   0.518E-01    0.424E+00
DAV:  10    -0.630695416233E+03   -0.34307E-02   -0.34770E-02 11184   0.374E-01    0.388E+00
DAV:  11    -0.630687581125E+03    0.78351E-02   -0.16485E-02 11952   0.229E-01    0.367E+00
DAV:  12    -0.630683591482E+03    0.39896E-02   -0.69686E-03 11712   0.135E-01    0.356E+00
DAV:  13    -0.630676651046E+03    0.69404E-02   -0.31928E-02 11376   0.251E-01    0.333E+00
DAV:  14    -0.630677925965E+03   -0.12749E-02   -0.19548E-03 11952   0.686E-02    0.335E+00
DAV:  15    -0.630674958657E+03    0.29673E-02   -0.33561E-03 12816   0.760E-02    0.330E+00
DAV:  16    -0.630671037345E+03    0.39213E-02   -0.53429E-03 12144   0.764E-02    0.327E+00
DAV:  17    -0.630673214210E+03   -0.21769E-02   -0.23742E-03 11712   0.523E-02    0.330E+00
DAV:  18    -0.630674455939E+03   -0.12417E-02   -0.32533E-03 11472   0.334E-02    0.330E+00
DAV:  19    -0.630675917440E+03   -0.14615E-02   -0.36781E-02 11280   0.150E-01    0.322E+00
DAV:  20    -0.630662108285E+03    0.13809E-01   -0.73813E-02 11136   0.443E-01    0.279E+00
DAV:  21    -0.630650683514E+03    0.11425E-01   -0.41960E-02 11376   0.435E-01    0.104E+00
DAV:  22    -0.630658320838E+03   -0.76373E-02   -0.14791E-02 13104   0.186E-01    0.212E+00
DAV:  23    -0.630651207866E+03    0.71130E-02   -0.12321E-02 11328   0.243E-01    0.332E-01
DAV:  24    -0.630652947304E+03   -0.17394E-02   -0.14809E-03 11376   0.796E-02    0.503E-01
DAV:  25    -0.630653200640E+03   -0.25334E-03   -0.15799E-03 12816   0.558E-02    0.397E-01
DAV:  26    -0.630653292408E+03   -0.91768E-04   -0.20358E-04 10848   0.215E-02    0.332E-01
DAV:  27    -0.630653308806E+03   -0.16398E-04   -0.24923E-05 12624   0.771E-03    0.336E-01
DAV:  28    -0.630653315633E+03   -0.68278E-05   -0.27099E-06  9120   0.240E-03    0.345E-01
DAV:  29    -0.630653182529E+03    0.13310E-03   -0.90347E-05 10992   0.179E-02    0.339E-01
DAV:  30    -0.630653255579E+03   -0.73049E-04   -0.93423E-04 11328   0.467E-02    0.886E-01
DAV:  31    -0.630652086272E+03    0.11693E-02   -0.33004E-03 11760   0.779E-02    0.903E-01
DAV:  32    -0.630650991184E+03    0.10951E-02   -0.23912E-03 10992   0.513E-02    0.534E-01
DAV:  33    -0.630651274473E+03   -0.28329E-03   -0.33000E-03 10704   0.821E-02    0.866E-01
DAV:  34    -0.630650380538E+03    0.89394E-03   -0.20561E-03 10464   0.596E-02    0.530E-01
DAV:  35    -0.630650497875E+03   -0.11734E-03   -0.25954E-03 10944   0.550E-02    0.777E-01
DAV:  36    -0.630650913016E+03   -0.41514E-03   -0.12341E-03  9552   0.463E-02    0.802E-01
DAV:  37    -0.630650720477E+03    0.19254E-03   -0.30930E-03 10512   0.893E-02    0.358E-01
DAV:  38    -0.630652025728E+03   -0.13053E-02   -0.98066E-03 10896   0.128E-01    0.356E-01
DAV:  39    -0.630654130990E+03   -0.21053E-02   -0.11863E-02 10800   0.134E-01    0.893E-01
DAV:  40    -0.630654782399E+03   -0.65141E-03   -0.32954E-03 11280   0.748E-02    0.807E-01
DAV:  41    -0.630654281517E+03    0.50088E-03   -0.14168E-03  9696   0.519E-02    0.758E-01
DAV:  42    -0.630654216083E+03    0.65434E-04   -0.17398E-04 12336   0.202E-02    0.601E-01
DAV:  43    -0.630654049344E+03    0.16674E-03   -0.33045E-04 10464   0.195E-02    0.609E-01
DAV:  44    -0.630653764198E+03    0.28515E-03   -0.32926E-03 10128   0.440E-02    0.618E-01
DAV:  45    -0.630653797216E+03   -0.33018E-04   -0.14381E-02 10368   0.881E-02    0.851E-01
DAV:  46    -0.630653378315E+03    0.41890E-03   -0.40512E-03 10704   0.565E-02    0.621E-01
DAV:  47    -0.630652928149E+03    0.45017E-03   -0.38308E-03 10992   0.631E-02    0.367E-01
DAV:  48    -0.630652990965E+03   -0.62816E-04   -0.40995E-03 10272   0.567E-02    0.592E-01
DAV:  49    -0.630653442992E+03   -0.45203E-03   -0.54056E-04  9264   0.335E-02    0.687E-01
DAV:  50    -0.630653377858E+03    0.65134E-04   -0.21935E-05 10608   0.787E-03    0.690E-01
DAV:  51    -0.630653368569E+03    0.92887E-05   -0.50364E-05 10704   0.964E-03    0.656E-01
DAV:  52    -0.630653287529E+03    0.81041E-04   -0.21476E-04 11136   0.154E-02    0.646E-01
DAV:  53    -0.630653146757E+03    0.14077E-03   -0.27507E-04 10512   0.204E-02    0.494E-01
DAV:  54    -0.630653386033E+03   -0.23928E-03   -0.75270E-04 10416   0.246E-02    0.505E-01
DAV:  55    -0.630652664445E+03    0.72159E-03   -0.16509E-02  9792   0.124E-01    0.761E-01
DAV:  56    -0.630652477845E+03    0.18660E-03   -0.53610E-03 10128   0.743E-02    0.747E-01
DAV:  57    -0.630652520426E+03   -0.42581E-04   -0.33129E-02 10272   0.137E-01    0.250E-01
DAV:  58    -0.630653208217E+03   -0.68779E-03   -0.34229E-03 10032   0.627E-02    0.395E-01
DAV:  59    -0.630653344240E+03   -0.13602E-03   -0.34995E-04  9984   0.280E-02    0.375E-01
DAV:  60    -0.630653256603E+03    0.87637E-04   -0.30872E-03 10320   0.414E-02    0.572E-01
DAV:  61    -0.630653347123E+03   -0.90519E-04   -0.36882E-03 10224   0.464E-02    0.742E-01
DAV:  62    -0.630652010359E+03    0.13368E-02   -0.96730E-03  9648   0.109E-01    0.707E-01
DAV:  63    -0.630652707671E+03   -0.69731E-03   -0.16707E-03  9456   0.625E-02    0.600E-01
DAV:  64    -0.630652808162E+03   -0.10049E-03   -0.16225E-04 11376   0.143E-02    0.686E-01
DAV:  65    -0.630652773374E+03    0.34788E-04   -0.14122E-05 10128   0.574E-03    0.690E-01
DAV:  66    -0.630652780999E+03   -0.76256E-05   -0.32508E-05  9072   0.781E-03    0.705E-01
DAV:  67    -0.630652816632E+03   -0.35633E-04   -0.28034E-03  9744   0.483E-02    0.550E-01
DAV:  68    -0.630652726564E+03    0.90068E-04   -0.36536E-03 10272   0.708E-02    0.662E-01
DAV:  69    -0.630652580098E+03    0.14647E-03   -0.67430E-04  9984   0.313E-02    0.673E-01
DAV:  70    -0.630652524407E+03    0.55690E-04   -0.58370E-05 11616   0.793E-03    0.680E-01
DAV:  71    -0.630652479003E+03    0.45404E-04   -0.28165E-05  8640   0.409E-03    0.685E-01
DAV:  72    -0.630652103895E+03    0.37511E-03   -0.31568E-02  9792   0.167E-01    0.487E-01
DAV:  73    -0.630653627408E+03   -0.15235E-02   -0.29291E-03  9168   0.623E-02    0.507E-01
DAV:  74    -0.630654077772E+03   -0.45036E-03   -0.90127E-03 10368   0.563E-02    0.460E-01
DAV:  75    -0.630654113817E+03   -0.36045E-04   -0.17024E-04 10320   0.158E-02    0.467E-01
DAV:  76    -0.630653807270E+03    0.30655E-03   -0.21788E-03  9840   0.307E-02    0.425E-01
DAV:  77    -0.630653606991E+03    0.20028E-03   -0.26755E-03 10128   0.331E-02    0.387E-01
DAV:  78    -0.630653251710E+03    0.35528E-03   -0.65889E-03  9792   0.507E-02    0.359E-01
DAV:  79    -0.630651467722E+03    0.17840E-02   -0.72445E-02  9696   0.176E-01    0.668E-01
DAV:  80    -0.630651274469E+03    0.19325E-03   -0.15450E-02 10752   0.964E-02    0.740E-01
DAV:  81    -0.630651274737E+03   -0.26834E-06   -0.21005E-03  9888   0.386E-02    0.784E-01
DAV:  82    -0.630651384056E+03   -0.10932E-03   -0.40173E-03  9600   0.587E-02    0.543E-01
DAV:  83    -0.630651126368E+03    0.25769E-03   -0.19829E-02  9936   0.900E-02    0.890E-01
DAV:  84    -0.630650961003E+03    0.16537E-03   -0.20938E-04 10416   0.208E-02    0.794E-01
DAV:  85    -0.630650854287E+03    0.10672E-03   -0.34244E-04 10848   0.149E-02    0.711E-01
DAV:  86    -0.630650410319E+03    0.44397E-03   -0.42269E-03  9936   0.438E-02    0.386E-01
DAV:  87    -0.630650084484E+03    0.32584E-03   -0.75395E-03 10224   0.624E-02    0.362E-01
DAV:  88    -0.630650189868E+03   -0.10538E-03   -0.32718E-04  9840   0.196E-02    0.220E-01
DAV:  89    -0.630650386528E+03   -0.19666E-03   -0.18646E-04 10272   0.131E-02    0.199E-01
DAV:  90    -0.630650377891E+03    0.86378E-05   -0.33575E-05  9120   0.507E-03
   5 F= -.63065038E+03 E0= -.63062047E+03  d E =-.355096E+00  mag=    21.4434
       N       E                     dE             d eps       ncg     rms          rms(c)
DAV:   1    -0.630648576324E+03    0.18102E-02   -0.86003E-01  7776   0.134E+00    0.475E-01
DAV:   2    -0.630652506316E+03   -0.39300E-02   -0.54013E-02 12384   0.431E-01    0.157E+00
DAV:   3    -0.630652662882E+03   -0.15657E-03   -0.14393E-02 12192   0.222E-01    0.158E+00
DAV:   4    -0.630652471597E+03    0.19128E-03   -0.13043E-03 10368   0.593E-02    0.147E+00
DAV:   5    -0.630651913307E+03    0.55829E-03   -0.44578E-03 11664   0.779E-02    0.857E-01
DAV:   6    -0.630654813520E+03   -0.29002E-02   -0.10705E-02 10608   0.150E-01    0.167E+00
DAV:   7    -0.630651880491E+03    0.29330E-02   -0.28412E-03 10368   0.122E-01    0.705E-01
DAV:   8    -0.630652093973E+03   -0.21348E-03   -0.29797E-03 10896   0.839E-02    0.334E-01
DAV:   9    -0.630652636157E+03   -0.54218E-03   -0.27778E-03 12672   0.697E-02    0.200E-01
DAV:  10    -0.630652928778E+03   -0.29262E-03   -0.97934E-04 12288   0.434E-02    0.362E-01
DAV:  11    -0.630652988655E+03   -0.59877E-04   -0.23919E-04 10992   0.242E-02    0.315E-01
DAV:  12    -0.630653080425E+03   -0.91770E-04   -0.29627E-04 11472   0.204E-02    0.205E-01
DAV:  13    -0.630653266244E+03   -0.18582E-03   -0.42632E-04 10560   0.195E-02    0.177E-01
DAV:  14    -0.630653419353E+03   -0.15311E-03   -0.33473E-04 10224   0.166E-02    0.173E-01
DAV:  15    -0.630653518890E+03   -0.99537E-04   -0.17295E-04 10224   0.122E-02    0.147E-01
DAV:  16    -0.630653748427E+03   -0.22954E-03   -0.74672E-04  9744   0.235E-02    0.156E-01
DAV:  17    -0.630654024591E+03   -0.27616E-03   -0.12477E-03  9984   0.305E-02    0.159E-01
DAV:  18    -0.630654538141E+03   -0.51355E-03   -0.49092E-03  9744   0.599E-02    0.147E-01
DAV:  19    -0.630655212003E+03   -0.67386E-03   -0.99894E-03  9744   0.852E-02    0.777E-02
DAV:  20    -0.630655587056E+03   -0.37505E-03   -0.17043E-03 11088   0.380E-02    0.141E-01
DAV:  21    -0.630655708630E+03   -0.12157E-03   -0.29217E-04 11280   0.175E-02    0.153E-01
DAV:  22    -0.630655981331E+03   -0.27270E-03   -0.15841E-03 10128   0.342E-02    0.910E-02
DAV:  23    -0.630656226901E+03   -0.24557E-03   -0.10039E-03  9840   0.268E-02    0.105E-01
DAV:  24    -0.630655963846E+03    0.26306E-03   -0.10485E-03 10032   0.286E-02    0.874E-02
DAV:  25    -0.630655724338E+03    0.23951E-03   -0.94595E-04  9696   0.268E-02    0.508E-02
DAV:  26    -0.630655693568E+03    0.30770E-04   -0.73196E-05 10512   0.916E-03    0.520E-02
DAV:  27    -0.630654655097E+03    0.10385E-02   -0.14281E-02  9600   0.103E-01    0.119E-01
DAV:  28    -0.630654107623E+03    0.54747E-03   -0.63655E-03  9840   0.717E-02    0.104E-01
DAV:  29    -0.630654366767E+03   -0.25914E-03   -0.35432E-04 10128   0.230E-02    0.116E-01
DAV:  30    -0.630654442605E+03   -0.75838E-04   -0.93849E-05 10800   0.102E-02    0.133E-01
DAV:  31    -0.630654439979E+03    0.26264E-05   -0.13845E-06  6384   0.216E-03    0.133E-01
DAV:  32    -0.630654426779E+03    0.13199E-04   -0.22501E-06  5472   0.166E-03    0.132E-01
DAV:  33    -0.630654480432E+03   -0.53653E-04   -0.51967E-05  8928   0.662E-03    0.123E-01
DAV:  34    -0.630655268482E+03   -0.78805E-03   -0.14914E-02  9552   0.106E-01    0.105E-01
DAV:  35    -0.630656717233E+03   -0.14488E-02   -0.63562E-02  9456   0.217E-01    0.362E-01
DAV:  36    -0.630654988018E+03    0.17292E-02   -0.64975E-02  9888   0.227E-01    0.258E-01
DAV:  37    -0.630654155754E+03    0.83226E-03   -0.18216E-02  9936   0.121E-01    0.332E-01
DAV:  38    -0.630654177383E+03   -0.21629E-04   -0.10251E-03 10560   0.349E-02    0.358E-01
DAV:  39    -0.630652281643E+03    0.18957E-02   -0.53149E-02  9456   0.195E-01    0.728E-01
DAV:  40    -0.630652534872E+03   -0.25323E-03   -0.51674E-04  9840   0.353E-02    0.697E-01
DAV:  41    -0.630652172878E+03    0.36199E-03   -0.36063E-03  9696   0.471E-02    0.791E-01
DAV:  42    -0.630651914748E+03    0.25813E-03   -0.31972E-04 11040   0.171E-02    0.687E-01
DAV:  43    -0.630652029340E+03   -0.11459E-03   -0.53694E-03  9648   0.757E-02    0.285E-01
DAV:  44    -0.630652281377E+03   -0.25204E-03   -0.13298E-03 10464   0.411E-02    0.134E-01
DAV:  45    -0.630651652170E+03    0.62921E-03   -0.98174E-03 10224   0.720E-02    0.300E-01
DAV:  46    -0.630651023850E+03    0.62832E-03   -0.72253E-03  9696   0.650E-02    0.416E-01
DAV:  47    -0.630651286300E+03   -0.26245E-03   -0.94825E-04 10272   0.389E-02    0.749E-01
DAV:  48    -0.630652395718E+03   -0.11094E-02   -0.10403E-01  9456   0.271E-01    0.214E-01
DAV:  49    -0.630652678675E+03   -0.28296E-03   -0.93468E-03 10944   0.807E-02    0.157E-01
DAV:  50    -0.630652213337E+03    0.46534E-03   -0.35633E-03 10224   0.438E-02    0.111E-01
DAV:  51    -0.630651984718E+03    0.22862E-03   -0.11675E-03  9888   0.266E-02    0.148E-01
DAV:  52    -0.630651738342E+03    0.24638E-03   -0.12437E-03  9648   0.307E-02    0.231E-01
DAV:  53    -0.630651937613E+03   -0.19927E-03   -0.89489E-04 10800   0.269E-02    0.105E-01
DAV:  54    -0.630651515807E+03    0.42181E-03   -0.30112E-03 10032   0.385E-02    0.168E-01
DAV:  55    -0.630651531737E+03   -0.15930E-04   -0.19178E-05  9552   0.639E-03    0.174E-01
DAV:  56    -0.630651496630E+03    0.35107E-04   -0.36251E-05  9696   0.519E-03    0.212E-01
DAV:  57    -0.630652039849E+03   -0.54322E-03   -0.59484E-03  9744   0.569E-02    0.958E-02
DAV:  58    -0.630652243665E+03   -0.20382E-03   -0.57898E-04 10752   0.171E-02    0.129E-01
DAV:  59    -0.630652933666E+03   -0.69000E-03   -0.10071E-02  9888   0.647E-02    0.113E-01
DAV:  60    -0.630653323475E+03   -0.38981E-03   -0.25330E-03 10560   0.324E-02    0.134E-01
DAV:  61    -0.630653591589E+03   -0.26811E-03   -0.13762E-03  9888   0.230E-02    0.148E-01
DAV:  62    -0.630652428128E+03    0.11635E-02   -0.21603E-02  9792   0.106E-01    0.313E-01
DAV:  63    -0.630652309008E+03    0.11912E-03   -0.12243E-03 10128   0.275E-02    0.294E-01
DAV:  64    -0.630651740970E+03    0.56804E-03   -0.91947E-03  9696   0.620E-02    0.218E-01
DAV:  65    -0.630651186837E+03    0.55413E-03   -0.10899E-02 10272   0.536E-02    0.332E-01
DAV:  66    -0.630651372417E+03   -0.18558E-03   -0.89971E-03  9792   0.958E-02    0.238E-01
DAV:  67    -0.630650773852E+03    0.59857E-03   -0.84023E-02  9792   0.223E-01    0.130E+00
DAV:  68    -0.630650648258E+03    0.12559E-03   -0.92016E-02  9744   0.264E-01    0.568E-01
DAV:  69    -0.630651459986E+03   -0.81173E-03   -0.16718E-03  9360   0.633E-02    0.128E-01
DAV:  70    -0.630651784445E+03   -0.32446E-03   -0.17247E-03 10080   0.423E-02    0.273E-01
DAV:  71    -0.630651531237E+03    0.25321E-03   -0.18474E-03 10320   0.318E-02    0.221E-01
DAV:  72    -0.630652143521E+03   -0.61228E-03   -0.32952E-02  9840   0.130E-01    0.162E-01
DAV:  73    -0.630651946890E+03    0.19663E-03   -0.22955E-03 10464   0.496E-02    0.152E-01
DAV:  74    -0.630651799386E+03    0.14750E-03   -0.77178E-04 10272   0.273E-02    0.242E-01
DAV:  75    -0.630651803945E+03   -0.45590E-05   -0.17598E-05  8592   0.785E-03    0.237E-01
DAV:  76    -0.630651757569E+03    0.46376E-04   -0.43179E-05  8736   0.422E-03    0.246E-01
DAV:  77    -0.630651624236E+03    0.13333E-03   -0.42475E-04 10176   0.126E-02    0.301E-01
DAV:  78    -0.630651610437E+03    0.13799E-04   -0.20428E-05  8544   0.542E-03    0.276E-01
DAV:  79    -0.630651624773E+03   -0.14336E-04   -0.68103E-06  6576   0.304E-03    0.284E-01
DAV:  80    -0.630651624877E+03   -0.10482E-06   -0.12186E-06  5232   0.131E-03
   6 F= -.63065162E+03 E0= -.63062193E+03  d E =-.356343E+00  mag=    21.4624
       N       E                     dE             d eps       ncg     rms          rms(c)
DAV:   1    -0.630711509298E+03   -0.59885E-01   -0.41895E+01  7680   0.915E+00    0.225E+00
DAV:   2    -0.630867864066E+03   -0.15635E+00   -0.18417E+00 13200   0.265E+00    0.249E+00
DAV:   3    -0.630873346363E+03   -0.54823E-02   -0.18130E-01 13776   0.801E-01    0.250E+00
DAV:   4    -0.630866178942E+03    0.71674E-02   -0.40840E-02 10704   0.411E-01    0.168E+00
DAV:   5    -0.630917863440E+03   -0.51684E-01   -0.61368E-02 12960   0.419E-01    0.301E+00
DAV:   6    -0.630869971055E+03    0.47892E-01   -0.47691E-02 11520   0.493E-01    0.218E+00
DAV:   7    -0.630867126578E+03    0.28445E-02   -0.31503E-02 11424   0.347E-01    0.134E+00
DAV:   8    -0.630868633588E+03   -0.15070E-02   -0.11649E-02 11328   0.199E-01    0.104E+00
DAV:   9    -0.630869253632E+03   -0.62004E-03   -0.62318E-03 12288   0.131E-01    0.105E+00
DAV:  10    -0.630868406882E+03    0.84675E-03   -0.31646E-03 12048   0.947E-02    0.417E-01
DAV:  11    -0.630869008348E+03   -0.60147E-03   -0.17202E-03 12528   0.718E-02    0.323E-01
DAV:  12    -0.630869243742E+03   -0.23539E-03   -0.65909E-04 12144   0.387E-02    0.160E-01
DAV:  13    -0.630869549507E+03   -0.30577E-03   -0.84176E-04 11808   0.325E-02    0.270E-01
DAV:  14    -0.630869662497E+03   -0.11299E-03   -0.62266E-04 11616   0.317E-02    0.134E-01
DAV:  15    -0.630869718350E+03   -0.55853E-04   -0.71021E-05 11568   0.116E-02    0.109E-01
DAV:  16    -0.630869575372E+03    0.14298E-03   -0.18317E-04 11472   0.145E-02    0.109E-01
DAV:  17    -0.630869237380E+03    0.33799E-03   -0.95400E-04 10464   0.334E-02    0.113E-01
DAV:  18    -0.630868867267E+03    0.37011E-03   -0.14502E-03 10656   0.384E-02    0.116E-01
DAV:  19    -0.630868322818E+03    0.54445E-03   -0.29186E-03 10608   0.583E-02    0.109E-01
DAV:  20    -0.630868176135E+03    0.14668E-03   -0.15425E-03 10848   0.467E-02    0.253E-01
DAV:  21    -0.630868085838E+03    0.90297E-04   -0.28308E-04 10368   0.225E-02    0.187E-01
DAV:  22    -0.630868179212E+03   -0.93374E-04   -0.58668E-05 10176   0.110E-02    0.179E-01
DAV:  23    -0.630868487302E+03   -0.30809E-03   -0.15082E-03 10128   0.402E-02    0.170E-01
DAV:  24    -0.630868951529E+03   -0.46423E-03   -0.42987E-03 10032   0.653E-02    0.119E-01
DAV:  25    -0.630869719803E+03   -0.76827E-03   -0.13694E-02 10128   0.112E-01    0.879E-02
DAV:  26    -0.630870245196E+03   -0.52539E-03   -0.12728E-03 11232   0.434E-02    0.100E-01
DAV:  27    -0.630869734745E+03    0.51045E-03   -0.29355E-03  9936   0.587E-02    0.958E-02
DAV:  28    -0.630869082360E+03    0.65238E-03   -0.47038E-03 10128   0.707E-02    0.137E-01
DAV:  29    -0.630868800141E+03    0.28222E-03   -0.23927E-03 10608   0.541E-02    0.101E-01
DAV:  30    -0.630868059656E+03    0.74049E-03   -0.67638E-03  9936   0.891E-02    0.207E-01
DAV:  31    -0.630868473734E+03   -0.41408E-03   -0.28616E-04  9312   0.315E-02    0.199E-01
DAV:  32    -0.630868542295E+03   -0.68561E-04   -0.51891E-05 11424   0.849E-03    0.198E-01
DAV:  33    -0.630868691731E+03   -0.14944E-03   -0.29355E-04 10368   0.156E-02    0.188E-01
DAV:  34    -0.630869524156E+03   -0.83243E-03   -0.35723E-02 10080   0.178E-01    0.160E-01
DAV:  35    -0.630870453953E+03   -0.92980E-03   -0.31816E-03 10176   0.612E-02    0.168E-01
DAV:  36    -0.630870817646E+03   -0.36369E-03   -0.11963E-03 10320   0.334E-02    0.179E-01
DAV:  37    -0.630870676263E+03    0.14138E-03   -0.62093E-04 10656   0.263E-02    0.168E-01
DAV:  38    -0.630870450339E+03    0.22592E-03   -0.84375E-04  9888   0.282E-02    0.149E-01
DAV:  39    -0.630870338629E+03    0.11171E-03   -0.37976E-04 10656   0.194E-02    0.134E-01
DAV:  40    -0.630870129420E+03    0.20921E-03   -0.10935E-03  9936   0.359E-02    0.118E-01
DAV:  41    -0.630869746746E+03    0.38267E-03   -0.27328E-03  9936   0.557E-02    0.114E-01
DAV:  42    -0.630869817086E+03   -0.70340E-04   -0.19846E-04 10272   0.207E-02    0.115E-01
DAV:  43    -0.630869852382E+03   -0.35295E-04   -0.13943E-05 10080   0.624E-03    0.114E-01
DAV:  44    -0.630869841840E+03    0.10541E-04   -0.34754E-06  7200   0.211E-03    0.114E-01
DAV:  45    -0.630869869666E+03   -0.27826E-04   -0.17674E-05  8160   0.465E-03    0.114E-01
DAV:  46    -0.630870038044E+03   -0.16838E-03   -0.80088E-04  9888   0.294E-02    0.114E-01
DAV:  47    -0.630870394807E+03   -0.35676E-03   -0.18821E-02  9888   0.141E-01    0.249E-01
DAV:  48    -0.630870823452E+03   -0.42865E-03   -0.84460E-04  9120   0.489E-02    0.209E-01
DAV:  49    -0.630871002806E+03   -0.17935E-03   -0.45551E-04 10560   0.180E-02    0.217E-01
DAV:  50    -0.630870985132E+03    0.17674E-04   -0.13477E-05  8544   0.539E-03    0.211E-01
DAV:  51    -0.630870994568E+03   -0.94359E-05   -0.58466E-05  9456   0.916E-03    0.201E-01
DAV:  52    -0.630870735277E+03    0.25929E-03   -0.31017E-03  9792   0.654E-02    0.164E-01
DAV:  53    -0.630870808278E+03   -0.73001E-04   -0.37920E-03 10176   0.728E-02    0.186E-01
DAV:  54    -0.630871226115E+03   -0.41784E-03   -0.65005E-04  9984   0.330E-02    0.202E-01
DAV:  55    -0.630870938973E+03    0.28714E-03   -0.15523E-03  9984   0.315E-02    0.206E-01
DAV:  56    -0.630870500216E+03    0.43876E-03   -0.33679E-03  9408   0.457E-02    0.232E-01
DAV:  57    -0.630870258739E+03    0.24148E-03   -0.16777E-03  9984   0.409E-02    0.148E-01
DAV:  58    -0.630870082351E+03    0.17639E-03   -0.94211E-04 10560   0.269E-02    0.159E-01
DAV:  59    -0.630869847565E+03    0.23479E-03   -0.11058E-03  9456   0.248E-02    0.176E-01
DAV:  60    -0.630869229837E+03    0.61773E-03   -0.56827E-03  9792   0.615E-02    0.220E-01
DAV:  61    -0.630868537804E+03    0.69203E-03   -0.68100E-03  9888   0.702E-02    0.221E-01
DAV:  62    -0.630868314257E+03    0.22355E-03   -0.15512E-03 10752   0.413E-02    0.302E-01
DAV:  63    -0.630867280793E+03    0.10335E-02   -0.10443E-02  9840   0.925E-02    0.515E-01
DAV:  64    -0.630868241223E+03   -0.96043E-03   -0.11375E-02  9936   0.970E-02    0.509E-01
DAV:  65    -0.630868152084E+03    0.89139E-04   -0.42467E-04 10272   0.259E-02    0.557E-01
DAV:  66    -0.630868225719E+03   -0.73635E-04   -0.16037E-04 10704   0.147E-02    0.594E-01
DAV:  67    -0.630867333745E+03    0.89197E-03   -0.59054E-03  9792   0.696E-02    0.525E-01
DAV:  68    -0.630867737042E+03   -0.40330E-03   -0.88391E-04 10848   0.328E-02    0.500E-01
DAV:  69    -0.630868053467E+03   -0.31642E-03   -0.73046E-04  9984   0.260E-02    0.478E-01
DAV:  70    -0.630868615788E+03   -0.56232E-03   -0.51030E-03  9792   0.591E-02    0.560E-01
DAV:  71    -0.630869954084E+03   -0.13383E-02   -0.61421E-02  9552   0.187E-01    0.539E-01
DAV:  72    -0.630870603512E+03   -0.64943E-03   -0.52102E-03 10752   0.678E-02    0.581E-01
DAV:  73    -0.630870523210E+03    0.80302E-04   -0.13702E-04 10416   0.185E-02    0.572E-01
DAV:  74    -0.630870496128E+03    0.27082E-04   -0.87160E-06 10944   0.417E-03    0.577E-01
DAV:  75    -0.630870489432E+03    0.66960E-05   -0.67154E-07  5616   0.141E-03    0.576E-01
DAV:  76    -0.630870376764E+03    0.11267E-03   -0.19401E-04  9936   0.161E-02    0.601E-01
DAV:  77    -0.630869489251E+03    0.88751E-03   -0.54699E-03  9888   0.794E-02    0.667E-01
DAV:  78    -0.630870028085E+03   -0.53883E-03   -0.22089E-03 10512   0.470E-02    0.737E-01
DAV:  79    -0.630870235423E+03   -0.20734E-03   -0.34738E-04  9984   0.250E-02    0.719E-01
DAV:  80    -0.630870227207E+03    0.82161E-05   -0.20220E-04 10176   0.169E-02    0.687E-01
DAV:  81    -0.630870260240E+03   -0.33033E-04   -0.26706E-03  9552   0.629E-02    0.689E-01
DAV:  82    -0.630870002524E+03    0.25772E-03   -0.26878E-03 10608   0.473E-02    0.713E-01
DAV:  83    -0.630869908266E+03    0.94258E-04   -0.20111E-03  9984   0.551E-02    0.719E-01
DAV:  84    -0.630869985373E+03   -0.77107E-04   -0.11887E-04  8544   0.195E-02    0.721E-01
DAV:  85    -0.630870043436E+03   -0.58063E-04   -0.91483E-05 10176   0.909E-03    0.731E-01
DAV:  86    -0.630870033852E+03    0.95838E-05   -0.24716E-06  6720   0.203E-03    0.736E-01
DAV:  87    -0.630867354895E+03    0.26790E-02   -0.57881E-02  9840   0.259E-01    0.827E-01
DAV:  88    -0.630868596533E+03   -0.12416E-02   -0.15365E-03  8784   0.692E-02    0.820E-01
DAV:  89    -0.630868550339E+03    0.46195E-04   -0.11200E-04 12576   0.139E-02    0.840E-01
DAV:  90    -0.630868417144E+03    0.13320E-03   -0.36891E-05  9552   0.782E-03
   7 F= -.63086842E+03 E0= -.63083910E+03  d E =-.216792E+00  mag=    21.5117
       N       E                     dE             d eps       ncg     rms          rms(c)
DAV:   1    -0.630859984590E+03    0.85657E-02   -0.10037E+01  7680   0.447E+00    0.137E+00
DAV:   2    -0.630915664278E+03   -0.55680E-01   -0.74306E-01 13488   0.150E+00    0.335E+00
DAV:   3    -0.630895869460E+03    0.19795E-01   -0.78567E-02 13248   0.568E-01    0.161E+00
DAV:   4    -0.630897956160E+03   -0.20867E-02   -0.35501E-02 11040   0.306E-01    0.168E+00
DAV:   5    -0.630898125881E+03   -0.16972E-03   -0.53383E-03 10656   0.135E-01    0.134E+00
DAV:   6    -0.630927230491E+03   -0.29105E-01   -0.29190E-02 10368   0.324E-01    0.640E+00
DAV:   7    -0.630905235201E+03    0.21995E-01   -0.18936E-02 10416   0.275E-01    0.500E+00
DAV:   8    -0.630890707653E+03    0.14528E-01   -0.22619E-02 10512   0.300E-01    0.146E+00
DAV:   9    -0.630905146123E+03   -0.14438E-01   -0.17470E-02 12768   0.227E-01    0.221E+00
DAV:  10    -0.630898950450E+03    0.61957E-02   -0.10511E-02 11952   0.163E-01    0.155E+00
DAV:  11    -0.630898655823E+03    0.29463E-03   -0.32891E-03 11184   0.887E-02    0.126E+00
DAV:  12    -0.630898681080E+03   -0.25257E-04   -0.16848E-03 11472   0.548E-02    0.113E+00
DAV:  13    -0.630898201376E+03    0.47970E-03   -0.62921E-04 10656   0.396E-02    0.726E-01
DAV:  14    -0.630898579723E+03   -0.37835E-03   -0.98170E-05 11088   0.168E-02    0.720E-01
DAV:  15    -0.630898627003E+03   -0.47280E-04   -0.12602E-05 12096   0.520E-03    0.719E-01
DAV:  16    -0.630898585307E+03    0.41697E-04   -0.28570E-06  6480   0.256E-03    0.686E-01
DAV:  17    -0.630898654177E+03   -0.68870E-04   -0.27631E-05 11040   0.754E-03    0.742E-01
DAV:  18    -0.630898398417E+03    0.25576E-03   -0.89676E-05 10944   0.111E-02    0.625E-01
DAV:  19    -0.630898250656E+03    0.14776E-03   -0.73483E-04 10656   0.337E-02    0.651E-01
DAV:  20    -0.630897624157E+03    0.62650E-03   -0.14710E-03 12000   0.474E-02    0.287E-01
DAV:  21    -0.630897641885E+03   -0.17727E-04   -0.13053E-03 10656   0.461E-02    0.395E-01
DAV:  22    -0.630897584511E+03    0.57374E-04   -0.12407E-03 11472   0.582E-02    0.466E-01
DAV:  23    -0.630897742605E+03   -0.15809E-03   -0.10908E-03 11328   0.427E-02    0.509E-01
DAV:  24    -0.630897931848E+03   -0.18924E-03   -0.12097E-03 12432   0.349E-02    0.391E-01
DAV:  25    -0.630898354604E+03   -0.42276E-03   -0.24590E-03 10944   0.422E-02    0.417E-01
DAV:  26    -0.630898732340E+03   -0.37774E-03   -0.30493E-03 11472   0.481E-02    0.409E-01
DAV:  27    -0.630899109908E+03   -0.37757E-03   -0.36922E-03 11328   0.532E-02    0.436E-01
DAV:  28    -0.630899397018E+03   -0.28711E-03   -0.26919E-03 11664   0.446E-02    0.443E-01
DAV:  29    -0.630899672732E+03   -0.27571E-03   -0.24724E-03 11136   0.411E-02    0.465E-01
DAV:  30    -0.630899914034E+03   -0.24130E-03   -0.18251E-03 11472   0.352E-02    0.482E-01
DAV:  31    -0.630900020213E+03   -0.10618E-03   -0.28652E-04 12240   0.143E-02    0.484E-01
DAV:  32    -0.630899842800E+03    0.17741E-03   -0.81925E-04 10464   0.237E-02    0.473E-01
DAV:  33    -0.630900593238E+03   -0.75044E-03   -0.26129E-02  9984   0.132E-01    0.492E-01
DAV:  34    -0.630901293611E+03   -0.70037E-03   -0.17292E-02 10464   0.106E-01    0.511E-01
DAV:  35    -0.630901290369E+03    0.32425E-05   -0.96674E-04 11712   0.310E-02    0.506E-01
DAV:  36    -0.630901042752E+03    0.24762E-03   -0.18255E-03 10368   0.351E-02    0.495E-01
DAV:  37    -0.630901516306E+03   -0.47355E-03   -0.81028E-03  9984   0.745E-02    0.525E-01
DAV:  38    -0.630901560250E+03   -0.43945E-04   -0.95374E-05 10944   0.112E-02    0.522E-01
DAV:  39    -0.630901657255E+03   -0.97005E-04   -0.36796E-04 10080   0.153E-02    0.527E-01
DAV:  40    -0.630901061447E+03    0.59581E-03   -0.12932E-02  9696   0.902E-02    0.565E-01
DAV:  41    -0.630900893041E+03    0.16841E-03   -0.10565E-03 11520   0.273E-02    0.572E-01
DAV:  42    -0.630901137675E+03   -0.24463E-03   -0.26014E-03 10320   0.417E-02    0.573E-01
DAV:  43    -0.630900851459E+03    0.28622E-03   -0.27585E-03 10272   0.425E-02    0.554E-01
DAV:  44    -0.630899112619E+03    0.17388E-02   -0.89460E-02  9744   0.237E-01    0.802E-01
DAV:  45    -0.630898213888E+03    0.89873E-03   -0.43899E-02 10704   0.166E-01    0.103E+00
DAV:  46    -0.630898255937E+03   -0.42049E-04   -0.42981E-04 10224   0.285E-02    0.103E+00
DAV:  47    -0.630898170263E+03    0.85674E-04   -0.80707E-04 11520   0.226E-02    0.109E+00
DAV:  48    -0.630897914616E+03    0.25565E-03   -0.35052E-03 10560   0.482E-02    0.814E-01
DAV:  49    -0.630897761309E+03    0.15331E-03   -0.24609E-04 11616   0.163E-02    0.600E-01
DAV:  50    -0.630898571994E+03   -0.81068E-03   -0.13185E-02  9984   0.938E-02    0.738E-01
DAV:  51    -0.630897651772E+03    0.92022E-03   -0.20448E-02 10368   0.118E-01    0.431E-01
DAV:  52    -0.630897936720E+03   -0.28495E-03   -0.84148E-04 11232   0.311E-02    0.509E-01
DAV:  53    -0.630897635855E+03    0.30087E-03   -0.15102E-03 10368   0.308E-02    0.483E-01
DAV:  54    -0.630897683565E+03   -0.47710E-04   -0.34128E-05  9600   0.597E-03    0.481E-01
DAV:  55    -0.630897944357E+03   -0.26079E-03   -0.16433E-03 10032   0.301E-02    0.468E-01
DAV:  56    -0.630899066729E+03   -0.11224E-02   -0.43942E-02  9504   0.160E-01    0.482E-01
DAV:  57    -0.630902794862E+03   -0.37281E-02   -0.70087E+00  9696   0.214E+00    0.232E+00
DAV:  58    -0.630925591785E+03   -0.22797E-01   -0.64366E-02 10752   0.343E-01    0.230E+00
DAV:  59    -0.630926344916E+03   -0.75313E-03   -0.32177E-03 12720   0.615E-02    0.229E+00
DAV:  60    -0.630926490707E+03   -0.14579E-03   -0.18382E-04 13488   0.148E-02    0.229E+00
DAV:  61    -0.630926711082E+03   -0.22038E-03   -0.15980E-04 11472   0.135E-02    0.229E+00
DAV:  62    -0.630927334968E+03   -0.62389E-03   -0.97524E-03  9648   0.100E-01    0.228E+00
DAV:  63    -0.630928045083E+03   -0.71012E-03   -0.32123E-03 11616   0.636E-02    0.229E+00
DAV:  64    -0.630929306274E+03   -0.12612E-02   -0.53855E-03 10560   0.680E-02    0.229E+00
DAV:  65    -0.630929427472E+03   -0.12120E-03   -0.17665E-04 11232   0.156E-02    0.229E+00
DAV:  66    -0.630929466836E+03   -0.39364E-04   -0.15985E-05  9744   0.392E-03    0.229E+00
DAV:  67    -0.630930227315E+03   -0.76048E-03   -0.56985E-04 10656   0.246E-02    0.230E+00
DAV:  68    -0.630930301882E+03   -0.74567E-04   -0.92658E-04 11280   0.213E-02    0.231E+00
DAV:  69    -0.630930589060E+03   -0.28718E-03   -0.32196E-04 10608   0.113E-02    0.231E+00
DAV:  70    -0.630930549509E+03    0.39551E-04   -0.97885E-06  8592   0.361E-03    0.231E+00
DAV:  71    -0.630930558536E+03   -0.90275E-05   -0.22120E-04  9120   0.987E-03    0.231E+00
DAV:  72    -0.630930985576E+03   -0.42704E-03   -0.10098E-03 10704   0.394E-02    0.231E+00
DAV:  73    -0.630930443745E+03    0.54183E-03   -0.49886E-03 10656   0.443E-02    0.231E+00
DAV:  74    -0.630929194324E+03    0.12494E-02   -0.47691E-03 10416   0.590E-02    0.230E+00
DAV:  75    -0.630928666107E+03    0.52822E-03   -0.32065E-02 10176   0.118E-01    0.229E+00
DAV:  76    -0.630928966615E+03   -0.30051E-03   -0.31350E-02  9984   0.113E-01    0.228E+00
DAV:  77    -0.630905181468E+03    0.23785E-01   -0.10431E+00  9840   0.855E-01    0.228E+00
DAV:  78    -0.630912832967E+03   -0.76515E-02   -0.26222E-02 10848   0.187E-01    0.227E+00
DAV:  79    -0.630915133101E+03   -0.23001E-02   -0.76768E-03 11232   0.743E-02    0.226E+00
DAV:  80    -0.630915175545E+03   -0.42444E-04   -0.36413E-04 11424   0.195E-02    0.225E+00
DAV:  81    -0.630915112418E+03    0.63127E-04   -0.56539E-05 11040   0.782E-03    0.225E+00
DAV:  82    -0.630917624750E+03   -0.25123E-02   -0.31525E-02  9840   0.176E-01    0.221E+00
DAV:  83    -0.630917196178E+03    0.42857E-03   -0.24236E-02 10224   0.106E-01    0.220E+00
DAV:  84    -0.630917112920E+03    0.83259E-04   -0.62642E-03 10896   0.513E-02    0.219E+00
DAV:  85    -0.630917262328E+03   -0.14941E-03   -0.27435E-04 11568   0.146E-02    0.219E+00
DAV:  86    -0.630918150167E+03   -0.88784E-03   -0.88012E-04 10560   0.314E-02    0.219E+00
DAV:  87    -0.630922363644E+03   -0.42135E-02   -0.24863E-01  9792   0.382E-01    0.217E+00
DAV:  88    -0.630922316146E+03    0.47497E-04   -0.55691E-03 11472   0.682E-02    0.216E+00
DAV:  89    -0.630921840943E+03    0.47520E-03   -0.47152E-04 11664   0.210E-02    0.215E+00
DAV:  90    -0.630920731343E+03    0.11096E-02   -0.10822E-02 10176   0.684E-02
   8 F= -.63092073E+03 E0= -.63089932E+03  d E =-.269106E+00  mag=    21.5414
       N       E                     dE             d eps       ncg     rms          rms(c)
DAV:   1    -0.630892294849E+03    0.29546E-01   -0.35194E+01  7680   0.838E+00    0.304E+00
DAV:   2    -0.630923973786E+03   -0.31679E-01   -0.18342E+00 11472   0.303E+00    0.679E+00
DAV:   3    -0.631085258364E+03   -0.16128E+00   -0.36442E-01 11664   0.129E+00    0.816E+00
DAV:   4    -0.630995230156E+03    0.90028E-01   -0.10736E-01 10560   0.595E-01    0.704E+00
DAV:   5    -0.630985135727E+03    0.10094E-01   -0.12499E-01 11232   0.717E-01    0.321E+00
DAV:   6    -0.631048687676E+03   -0.63552E-01   -0.56451E-02 11616   0.483E-01    0.310E+00
DAV:   7    -0.631023282538E+03    0.25405E-01   -0.36735E-02 13296   0.368E-01    0.319E+00
DAV:   8    -0.631008657935E+03    0.14625E-01   -0.52748E-02 12288   0.380E-01    0.311E+00
DAV:   9    -0.631001110950E+03    0.75470E-02   -0.20538E-02 11616   0.284E-01    0.286E+00
DAV:  10    -0.630990232208E+03    0.10879E-01   -0.12758E-02 10272   0.220E-01    0.258E+00
DAV:  11    -0.630983171669E+03    0.70605E-02   -0.76316E-03 10848   0.173E-01    0.189E+00
DAV:  12    -0.630981926771E+03    0.12449E-02   -0.38051E-03 11232   0.114E-01    0.119E+00
DAV:  13    -0.630982206596E+03   -0.27982E-03   -0.24451E-03 11712   0.924E-02    0.470E-01
DAV:  14    -0.630983216820E+03   -0.10102E-02   -0.16269E-03 11184   0.648E-02    0.189E-01
DAV:  15    -0.630983800851E+03   -0.58403E-03   -0.89625E-04 12384   0.481E-02    0.391E-01
DAV:  16    -0.630984054876E+03   -0.25403E-03   -0.85660E-04 11856   0.369E-02    0.445E-01
DAV:  17    -0.630984149281E+03   -0.94404E-04   -0.67856E-04 10704   0.354E-02    0.300E-01
DAV:  18    -0.630984238242E+03   -0.88961E-04   -0.96145E-05 13728   0.118E-02    0.274E-01
DAV:  19    -0.630984170008E+03    0.68234E-04   -0.13026E-04 11136   0.128E-02    0.335E-01
DAV:  20    -0.630983618846E+03    0.55116E-03   -0.17633E-03 10512   0.483E-02    0.169E-01
DAV:  21    -0.630982744380E+03    0.87447E-03   -0.68614E-03 10416   0.817E-02    0.200E-01
DAV:  22    -0.630982572982E+03    0.17140E-03   -0.13358E-03 10848   0.420E-02    0.166E-01
DAV:  23    -0.630981965168E+03    0.60781E-03   -0.36533E-03 10464   0.597E-02    0.185E-01
DAV:  24    -0.630982378539E+03   -0.41337E-03   -0.87636E-04 10560   0.353E-02    0.135E-01
DAV:  25    -0.630982679303E+03   -0.30076E-03   -0.10337E-03 10512   0.312E-02    0.130E-01
DAV:  26    -0.630983636038E+03   -0.95674E-03   -0.13528E-02 10128   0.108E-01    0.297E-01
DAV:  27    -0.630984634841E+03   -0.99880E-03   -0.18515E-02 10080   0.125E-01    0.220E-01
DAV:  28    -0.630985415669E+03   -0.78083E-03   -0.38456E-03 10896   0.608E-02    0.298E-01
DAV:  29    -0.630984618513E+03    0.79716E-03   -0.71622E-03  9984   0.818E-02    0.251E-01
DAV:  30    -0.630984089163E+03    0.52935E-03   -0.39966E-03 10320   0.596E-02    0.290E-01
DAV:  31    -0.630984164228E+03   -0.75065E-04   -0.69123E-05  8784   0.153E-02    0.291E-01
DAV:  32    -0.630983477017E+03    0.68721E-03   -0.54340E-03 10128   0.698E-02    0.400E-01
DAV:  33    -0.630982095156E+03    0.13819E-02   -0.17145E-02  9984   0.122E-01    0.474E-01
DAV:  34    -0.630982866395E+03   -0.77124E-03   -0.41064E-03  9936   0.661E-02    0.353E-01
DAV:  35    -0.630983111989E+03   -0.24559E-03   -0.21589E-04 10608   0.170E-02    0.516E-01
DAV:  36    -0.630983066733E+03    0.45256E-04   -0.15153E-05  9984   0.574E-03    0.516E-01
DAV:  37    -0.630983037500E+03    0.29233E-04   -0.17726E-05  8160   0.490E-03    0.501E-01
DAV:  38    -0.630983058102E+03   -0.20602E-04   -0.81044E-06  7200   0.282E-03    0.499E-01
DAV:  39    -0.630983045149E+03    0.12953E-04   -0.88704E-06  7296   0.370E-03    0.488E-01
DAV:  40    -0.630983083155E+03   -0.38006E-04   -0.29136E-05  9216   0.434E-03    0.496E-01
DAV:  41    -0.630982997446E+03    0.85710E-04   -0.28785E-04  9168   0.139E-02    0.476E-01
DAV:  42    -0.630982552100E+03    0.44535E-03   -0.40729E-03 10224   0.379E-02    0.510E-01
DAV:  43    -0.630981994993E+03    0.55711E-03   -0.62232E-03 10224   0.456E-02    0.533E-01
DAV:  44    -0.630981361443E+03    0.63355E-03   -0.62799E-03  9888   0.476E-02    0.374E-01
DAV:  45    -0.630980864740E+03    0.49670E-03   -0.81940E-03 10224   0.508E-02    0.436E-01
DAV:  46    -0.630980403738E+03    0.46100E-03   -0.53303E-03 10032   0.464E-02    0.304E-01
DAV:  47    -0.630980181752E+03    0.22199E-03   -0.28875E-03 10752   0.327E-02    0.412E-01
DAV:  48    -0.630980651276E+03   -0.46952E-03   -0.36185E-03 10368   0.615E-02    0.427E-01
DAV:  49    -0.630981086937E+03   -0.43566E-03   -0.62731E-04 10848   0.268E-02    0.543E-01
DAV:  50    -0.630981005611E+03    0.81326E-04   -0.39360E-05 10560   0.823E-03    0.565E-01
DAV:  51    -0.630981252272E+03   -0.24666E-03   -0.17101E-03 10080   0.238E-02    0.543E-01
DAV:  52    -0.630982945273E+03   -0.16930E-02   -0.64101E-02  9984   0.152E-01    0.329E-01
DAV:  53    -0.630987188839E+03   -0.42436E-02   -0.15904E-01  9840   0.238E-01    0.128E+00
DAV:  54    -0.630990214878E+03   -0.30260E-02   -0.15368E-02 10176   0.844E-02    0.175E+00
DAV:  55    -0.630985963474E+03    0.42514E-02   -0.26932E-02  9696   0.124E-01    0.111E+00
DAV:  56    -0.630988449007E+03   -0.24855E-02   -0.23845E-02  9984   0.155E-01    0.142E+00
DAV:  57    -0.630987281685E+03    0.11673E-02   -0.10086E-02  9888   0.991E-02    0.123E+00
DAV:  58    -0.630983701067E+03    0.35806E-02   -0.79706E-02 10128   0.170E-01    0.358E-01
DAV:  59    -0.630985359779E+03   -0.16587E-02   -0.81941E-03 10320   0.724E-02    0.690E-01
DAV:  60    -0.630984911339E+03    0.44844E-03   -0.18325E-03 10224   0.322E-02    0.591E-01
DAV:  61    -0.630984345376E+03    0.56596E-03   -0.43706E-03 10416   0.338E-02    0.419E-01
DAV:  62    -0.630983908949E+03    0.43643E-03   -0.40835E-03 10416   0.342E-02    0.320E-01
DAV:  63    -0.630984158488E+03   -0.24954E-03   -0.37684E-04 11184   0.181E-02    0.330E-01
DAV:  64    -0.630984290843E+03   -0.13235E-03   -0.30671E-04 10224   0.115E-02    0.344E-01
DAV:  65    -0.630984147687E+03    0.14316E-03   -0.37377E-04 10176   0.153E-02    0.330E-01
DAV:  66    -0.630984177446E+03   -0.29759E-04   -0.84715E-06  7296   0.407E-03    0.331E-01
DAV:  67    -0.630983985046E+03    0.19240E-03   -0.30362E-03  9504   0.522E-02    0.375E-01
DAV:  68    -0.630984125012E+03   -0.13997E-03   -0.23757E-04  9024   0.215E-02    0.363E-01
DAV:  69    -0.630984116331E+03    0.86815E-05   -0.13217E-05  9360   0.395E-03    0.373E-01
DAV:  70    -0.630984111619E+03    0.47115E-05   -0.94766E-07  5280   0.160E-03    0.372E-01
DAV:  71    -0.630984130238E+03   -0.18619E-04   -0.13714E-05  6480   0.266E-03    0.363E-01
DAV:  72    -0.630991445308E+03   -0.73151E-02   -0.22292E-01 10128   0.276E-01    0.195E+00
DAV:  73    -0.630989785541E+03    0.16598E-02   -0.59345E-03 10128   0.923E-02    0.176E+00
DAV:  74    -0.630989558709E+03    0.22683E-03   -0.77029E-04 11856   0.230E-02    0.179E+00
DAV:  75    -0.630989190429E+03    0.36828E-03   -0.97014E-04 10368   0.264E-02    0.178E+00
DAV:  76    -0.630989351732E+03   -0.16130E-03   -0.22676E-04 11040   0.146E-02    0.179E+00
DAV:  77    -0.630990773094E+03   -0.14214E-02   -0.17982E-03 10224   0.304E-02    0.193E+00
DAV:  78    -0.630990155877E+03    0.61722E-03   -0.18822E-04 10224   0.190E-02    0.187E+00
DAV:  79    -0.630990296662E+03   -0.14079E-03   -0.13916E-04 10128   0.116E-02    0.187E+00
DAV:  80    -0.630990550686E+03   -0.25402E-03   -0.94577E-04  9936   0.328E-02    0.187E+00
DAV:  81    -0.630990621697E+03   -0.71011E-04   -0.38080E-04 10176   0.231E-02    0.186E+00
DAV:  82    -0.630991302904E+03   -0.68121E-03   -0.83722E-04  9792   0.364E-02    0.193E+00
DAV:  83    -0.630991196326E+03    0.10658E-03   -0.34329E-04 10512   0.227E-02    0.194E+00
DAV:  84    -0.630991344289E+03   -0.14796E-03   -0.23733E-04 10704   0.170E-02    0.196E+00
DAV:  85    -0.630991120222E+03    0.22407E-03   -0.13089E-04 10272   0.129E-02    0.195E+00
DAV:  86    -0.630991137862E+03   -0.17640E-04   -0.33790E-05  7920   0.861E-03    0.195E+00
DAV:  87    -0.630991665951E+03   -0.52809E-03   -0.96375E-05 10224   0.120E-02    0.199E+00
DAV:  88    -0.630991330768E+03    0.33518E-03   -0.25924E-04  9744   0.957E-03    0.197E+00
DAV:  89    -0.630991490460E+03   -0.15969E-03   -0.30462E-04  9216   0.107E-02    0.198E+00
DAV:  90    -0.630991623881E+03   -0.13342E-03   -0.15514E-04  9360   0.751E-03
   9 F= -.63099162E+03 E0= -.63096849E+03  d E =-.708925E-01  mag=    21.5208
       N       E                     dE             d eps       ncg     rms          rms(c)
DAV:   1    -0.630990237571E+03    0.12529E-02   -0.10333E+00  7680   0.143E+00    0.200E+00
DAV:   2    -0.630918698865E+03    0.71539E-01   -0.49220E-01 10464   0.166E+00    0.239E+00
DAV:   3    -0.631192950103E+03   -0.27425E+00   -0.32234E-01 11136   0.702E-01    0.823E+00
DAV:   4    -0.631023468507E+03    0.16948E+00   -0.12187E-01 10560   0.729E-01    0.721E+00
DAV:   5    -0.630975741314E+03    0.47727E-01   -0.33697E-02 10944   0.353E-01    0.134E+00
DAV:   6    -0.630987520469E+03   -0.11779E-01   -0.76849E-03 12384   0.163E-01    0.602E-01
DAV:   7    -0.630990317296E+03   -0.27968E-02   -0.19770E-03 12048   0.812E-02    0.663E-01
DAV:   8    -0.630990516729E+03   -0.19943E-03   -0.30188E-03 11472   0.870E-02    0.696E-01
DAV:   9    -0.630991229285E+03   -0.71256E-03   -0.22577E-03 11328   0.733E-02    0.113E+00
DAV:  10    -0.630991128454E+03    0.10083E-03   -0.64048E-04 11376   0.407E-02    0.115E+00
DAV:  11    -0.630990896623E+03    0.23183E-03   -0.83835E-05 10800   0.165E-02    0.106E+00
DAV:  12    -0.630990908818E+03   -0.12194E-04   -0.26178E-05 12000   0.737E-03    0.102E+00
DAV:  13    -0.630990805268E+03    0.10355E-03   -0.22597E-04 10800   0.191E-02    0.104E+00
DAV:  14    -0.630990627587E+03    0.17768E-03   -0.11405E-03 10512   0.401E-02    0.114E+00
DAV:  15    -0.630990326553E+03    0.30103E-03   -0.19008E-03 10512   0.430E-02    0.114E+00
DAV:  16    -0.630990134441E+03    0.19211E-03   -0.59460E-04 10608   0.394E-02    0.801E-01
DAV:  17    -0.630990149827E+03   -0.15387E-04   -0.66607E-04 11712   0.367E-02    0.498E-01
DAV:  18    -0.630990291957E+03   -0.14213E-03   -0.44318E-04 11760   0.302E-02    0.307E-01
DAV:  19    -0.630990444627E+03   -0.15267E-03   -0.25271E-04 10512   0.195E-02    0.309E-01
DAV:  20    -0.630990498442E+03   -0.53815E-04   -0.50337E-05 11568   0.106E-02    0.252E-01
DAV:  21    -0.630990522288E+03   -0.23847E-04   -0.27072E-06  8688   0.325E-03    0.252E-01
DAV:  22    -0.630990517615E+03    0.46733E-05   -0.19172E-05  9792   0.589E-03    0.276E-01
DAV:  23    -0.630990490486E+03    0.27129E-04   -0.27868E-05 10128   0.631E-03    0.290E-01
DAV:  24    -0.630990352289E+03    0.13820E-03   -0.58454E-04 10224   0.274E-02    0.234E-01
DAV:  25    -0.630990319473E+03    0.32816E-04   -0.20087E-04 10896   0.172E-02    0.258E-01
DAV:  26    -0.630990301811E+03    0.17661E-04   -0.20654E-05 10416   0.633E-03    0.256E-01
DAV:  27    -0.630990406077E+03   -0.10427E-03   -0.37104E-04 10080   0.214E-02    0.306E-01
DAV:  28    -0.630990648618E+03   -0.24254E-03   -0.13542E-02 10080   0.126E-01    0.966E-02
DAV:  29    -0.630991134685E+03   -0.48607E-03   -0.18183E-02 10272   0.142E-01    0.215E-01
DAV:  30    -0.630991654519E+03   -0.51983E-03   -0.59548E-04  9360   0.436E-02    0.202E-01
DAV:  31    -0.630991653153E+03    0.13653E-05   -0.23235E-05 13104   0.781E-03    0.202E-01
DAV:  32    -0.630991706753E+03   -0.53599E-04   -0.17431E-04 11136   0.143E-02    0.220E-01
DAV:  33    -0.630991777792E+03   -0.71040E-04   -0.29903E-04 10272   0.187E-02    0.270E-01
DAV:  34    -0.630991647551E+03    0.13024E-03   -0.48568E-04 10272   0.249E-02    0.224E-01
DAV:  35    -0.630991564775E+03    0.82776E-04   -0.30962E-04 11712   0.255E-02    0.246E-01
DAV:  36    -0.630991561045E+03    0.37300E-05   -0.20726E-04 10080   0.187E-02    0.274E-01
DAV:  37    -0.630991611753E+03   -0.50708E-04   -0.35124E-05 10608   0.857E-03    0.282E-01
DAV:  38    -0.630991604599E+03    0.71534E-05   -0.55074E-06  7824   0.288E-03    0.284E-01
DAV:  39    -0.630991596231E+03    0.83682E-05   -0.11887E-06  5424   0.164E-03    0.283E-01
DAV:  40    -0.630991605782E+03   -0.95504E-05   -0.20723E-06  6384   0.212E-03    0.282E-01
DAV:  41    -0.630991654538E+03   -0.48756E-04   -0.34968E-05  8448   0.764E-03    0.277E-01
DAV:  42    -0.630991683625E+03   -0.29088E-04   -0.25323E-05  9312   0.621E-03    0.273E-01
DAV:  43    -0.630991549443E+03    0.13418E-03   -0.24383E-04 10656   0.138E-02    0.263E-01
DAV:  44    -0.630991292495E+03    0.25695E-03   -0.11111E-03 10128   0.281E-02    0.244E-01
[...]
DAV:   8    -0.631166726829E+03   -0.26960E-02   -0.12460E-02 11616   0.169E-01    0.157E+00
DAV:   9    -0.631165428345E+03    0.12985E-02   -0.43863E-03 11424   0.113E-01    0.129E+00
DAV:  10    -0.631164148549E+03    0.12798E-02   -0.24912E-03 11472   0.794E-02    0.719E-01
DAV:  11    -0.631164232891E+03   -0.84342E-04   -0.12011E-03 11760   0.579E-02    0.161E-01
DAV:  12    -0.631164807962E+03   -0.57507E-03   -0.80066E-04 11664   0.375E-02    0.434E-01
DAV:  13    -0.631164758511E+03    0.49452E-04   -0.28458E-04 11712   0.230E-02    0.315E-01
DAV:  14    -0.631164806514E+03   -0.48003E-04   -0.34255E-04 11424   0.221E-02    0.136E-01
DAV:  15    -0.631164993379E+03   -0.18687E-03   -0.50050E-04 11472   0.225E-02    0.693E-02
DAV:  16    -0.631165085965E+03   -0.92586E-04   -0.15885E-04 11520   0.134E-02    0.606E-02
DAV:  17    -0.631165150616E+03   -0.64650E-04   -0.10945E-04 10800   0.993E-03    0.546E-02
DAV:  18    -0.631165249037E+03   -0.98422E-04   -0.26510E-04 10560   0.144E-02    0.662E-02
DAV:  19    -0.631165376071E+03   -0.12703E-03   -0.54575E-04 10464   0.206E-02    0.687E-02
DAV:  20    -0.631165606468E+03   -0.23040E-03   -0.22619E-03 10128   0.416E-02    0.634E-02
DAV:  21    -0.631165940256E+03   -0.33379E-03   -0.63565E-03 10320   0.668E-02    0.111E-01
DAV:  22    -0.631166127072E+03   -0.18682E-03   -0.11504E-03 11088   0.315E-02    0.863E-02
DAV:  23    -0.631166233978E+03   -0.10691E-03   -0.40255E-04 10944   0.185E-02    0.491E-02
DAV:  24    -0.631166442030E+03   -0.20805E-03   -0.18323E-03 10272   0.352E-02    0.510E-02
DAV:  25    -0.631166616945E+03   -0.17492E-03   -0.12473E-03 10176   0.289E-02    0.469E-02
DAV:  26    -0.631166677740E+03   -0.60795E-04   -0.12530E-04 10368   0.107E-02    0.451E-02
DAV:  27    -0.631166500623E+03    0.17712E-03   -0.10377E-03  9936   0.268E-02    0.454E-02
DAV:  28    -0.631166329379E+03    0.17124E-03   -0.11766E-03  9696   0.283E-02    0.579E-02
DAV:  29    -0.631166708827E+03   -0.37945E-03   -0.62418E-03  9984   0.667E-02    0.896E-02
DAV:  30    -0.631166578361E+03    0.13047E-03   -0.10314E-03 10512   0.291E-02    0.812E-02
DAV:  31    -0.631166568994E+03    0.93663E-05   -0.19272E-05  8928   0.624E-03    0.504E-02
DAV:  32    -0.631167053808E+03   -0.48481E-03   -0.14290E-02  9936   0.980E-02    0.167E-01
DAV:  33    -0.631167590200E+03   -0.53639E-03   -0.16622E-02  9600   0.104E-01    0.312E-01
DAV:  34    -0.631167828199E+03   -0.23800E-03   -0.24325E-04  9936   0.234E-02    0.409E-01
DAV:  35    -0.631167628308E+03    0.19989E-03   -0.60001E-04 10752   0.223E-02    0.330E-01
DAV:  36    -0.631168007263E+03   -0.37896E-03   -0.46912E-03 10032   0.549E-02    0.444E-01
DAV:  37    -0.631167927071E+03    0.80193E-04   -0.64783E-04 10608   0.206E-02    0.482E-01
DAV:  38    -0.631167736159E+03    0.19091E-03   -0.10909E-03  9936   0.250E-02    0.474E-01
DAV:  39    -0.631167496402E+03    0.23976E-03   -0.22838E-03  9552   0.360E-02    0.462E-01
DAV:  40    -0.631167384972E+03    0.11143E-03   -0.76703E-04 10272   0.216E-02    0.449E-01
DAV:  41    -0.631167107197E+03    0.27777E-03   -0.34681E-03  9696   0.429E-02    0.458E-01
DAV:  42    -0.631166523409E+03    0.58379E-03   -0.10542E-02  9888   0.774E-02    0.433E-01
DAV:  43    -0.631165590882E+03    0.93253E-03   -0.31673E-02  9552   0.134E-01    0.577E-01
DAV:  44    -0.631165605702E+03   -0.14821E-04   -0.21095E-03 11088   0.453E-02    0.585E-01
DAV:  45    -0.631165556516E+03    0.49186E-04   -0.13078E-04 11520   0.138E-02    0.527E-01
DAV:  46    -0.631165557361E+03   -0.84518E-06   -0.48704E-05  9792   0.660E-03    0.456E-01
DAV:  47    -0.631165879471E+03   -0.32211E-03   -0.90146E-03  9744   0.750E-02    0.303E-01
DAV:  48    -0.631165913073E+03   -0.33602E-04   -0.45702E-04  9840   0.210E-02    0.239E-01
DAV:  49    -0.631165604869E+03    0.30820E-03   -0.48883E-03  9840   0.484E-02    0.324E-01
DAV:  50    -0.631165526491E+03    0.78378E-04   -0.30482E-04 10368   0.139E-02    0.293E-01
DAV:  51    -0.631165416097E+03    0.11039E-03   -0.64505E-04  9936   0.169E-02    0.308E-01
DAV:  52    -0.631165321325E+03    0.94772E-04   -0.28697E-04  9840   0.105E-02    0.274E-01
DAV:  53    -0.631165082043E+03    0.23928E-03   -0.17608E-03  9936   0.274E-02    0.188E-01
DAV:  54    -0.631165022615E+03    0.59428E-04   -0.43695E-04 10512   0.152E-02    0.202E-01
DAV:  55    -0.631164997709E+03    0.24906E-04   -0.46992E-05 10032   0.520E-03    0.194E-01
DAV:  56    -0.631164982914E+03    0.14795E-04   -0.18247E-05  7824   0.304E-03    0.201E-01
DAV:  57    -0.631165221382E+03   -0.23847E-03   -0.79510E-04  9792   0.194E-02    0.425E-01
DAV:  58    -0.631165363059E+03   -0.14168E-03   -0.42904E-03  9840   0.465E-02    0.289E-01
DAV:  59    -0.631165512967E+03   -0.14991E-03   -0.55656E-05  9744   0.106E-02    0.440E-01
DAV:  60    -0.631165685804E+03   -0.17284E-03   -0.20117E-03  9984   0.305E-02    0.464E-01
DAV:  61    -0.631165721036E+03   -0.35232E-04   -0.16691E-04 10272   0.935E-03    0.455E-01
DAV:  62    -0.631165926493E+03   -0.20546E-03   -0.12470E-03 10416   0.177E-02    0.524E-01
DAV:  63    -0.631165920322E+03    0.61716E-05   -0.96024E-05 10368   0.109E-02    0.508E-01
DAV:  64    -0.631165673351E+03    0.24697E-03   -0.24324E-03 10176   0.259E-02    0.435E-01
DAV:  65    -0.631165715008E+03   -0.41658E-04   -0.70217E-04 10368   0.244E-02    0.478E-01
DAV:  66    -0.631165699178E+03    0.15831E-04   -0.52830E-04 10176   0.189E-02    0.514E-01
DAV:  67    -0.631165786015E+03   -0.86837E-04   -0.57798E-03 10176   0.528E-02    0.402E-01
DAV:  68    -0.631165960417E+03   -0.17440E-03   -0.22842E-03  9840   0.505E-02    0.327E-01
DAV:  69    -0.631166109771E+03   -0.14935E-03   -0.27780E-04 11184   0.195E-02    0.344E-01
DAV:  70    -0.631166266382E+03   -0.15661E-03   -0.52987E-04  9600   0.192E-02    0.405E-01
DAV:  71    -0.631166383472E+03   -0.11709E-03   -0.44122E-04 10416   0.145E-02    0.455E-01
DAV:  72    -0.631165175132E+03    0.12083E-02   -0.60689E-02  9744   0.189E-01    0.821E-01
DAV:  73    -0.631165066129E+03    0.10900E-03   -0.15544E-03 10272   0.412E-02    0.689E-01
DAV:  74    -0.631164891576E+03    0.17455E-03   -0.77053E-04 10560   0.164E-02    0.599E-01
DAV:  75    -0.631164920649E+03   -0.29073E-04   -0.13211E-05  9360   0.490E-03    0.566E-01
DAV:  76    -0.631164932419E+03   -0.11770E-04   -0.13712E-05  8208   0.383E-03    0.565E-01
DAV:  77    -0.631164730357E+03    0.20206E-03   -0.85807E-04  9744   0.144E-02    0.494E-01
DAV:  78    -0.631164789086E+03   -0.58729E-04   -0.17751E-04 10512   0.105E-02    0.465E-01
DAV:  79    -0.631164864114E+03   -0.75028E-04   -0.18990E-04  9360   0.833E-03    0.468E-01
DAV:  80    -0.631164864815E+03   -0.70033E-06   -0.33462E-04  9216   0.193E-02    0.423E-01
DAV:  81    -0.631164779346E+03    0.85468E-04   -0.25469E-03 10080   0.325E-02    0.508E-01
DAV:  82    -0.631164595400E+03    0.18395E-03   -0.29664E-03  9456   0.576E-02    0.902E-02
DAV:  83    -0.631164777611E+03   -0.18221E-03   -0.12571E-03 10320   0.370E-02    0.166E-01
DAV:  84    -0.631164844919E+03   -0.67308E-04   -0.28733E-04 10080   0.180E-02    0.170E-01
DAV:  85    -0.631164778139E+03    0.66780E-04   -0.35031E-04  9792   0.199E-02    0.209E-01
DAV:  86    -0.631164848912E+03   -0.70773E-04   -0.54343E-04  9984   0.251E-02    0.176E-01
DAV:  87    -0.631164804226E+03    0.44687E-04   -0.63477E-03  9600   0.836E-02    0.267E-01
DAV:  88    -0.631164875145E+03   -0.70919E-04   -0.14505E-04  9936   0.202E-02    0.263E-01
DAV:  89    -0.631164889487E+03   -0.14342E-04   -0.24694E-05 10128   0.482E-03    0.248E-01
DAV:  90    -0.631164870028E+03    0.19459E-04   -0.35383E-05  8592   0.421E-03
  18 F= -.63116487E+03 E0= -.63113672E+03  d E =-.198248E-01  mag=    21.5940
       N       E                     dE             d eps       ncg     rms          rms(c)
DAV:   1    -0.631163588765E+03    0.13007E-02   -0.80022E-01  7680   0.128E+00    0.419E-01
DAV:   2    -0.631163415564E+03    0.17320E-03   -0.38884E-02 11280   0.419E-01    0.590E-01
DAV:   3    -0.631173986951E+03   -0.10571E-01   -0.86066E-03 10992   0.164E-01    0.357E+00
DAV:   4    -0.631165401222E+03    0.85857E-02   -0.47238E-03 10464   0.147E-01    0.198E+00
DAV:   5    -0.631163969153E+03    0.14321E-02   -0.16264E-03 10416   0.851E-02    0.281E-01
DAV:   6    -0.631165731423E+03   -0.17623E-02   -0.86467E-04 13008   0.569E-02    0.295E-01
DAV:   7    -0.631165966893E+03   -0.23547E-03   -0.60151E-04 11520   0.401E-02    0.141E-01
DAV:   8    -0.631166099405E+03   -0.13251E-03   -0.77636E-04 11904   0.339E-02    0.139E-01
DAV:   9    -0.631166154968E+03   -0.55563E-04   -0.38216E-04 11712   0.262E-02    0.124E-01
DAV:  10    -0.631166228310E+03   -0.73342E-04   -0.17243E-04 11136   0.168E-02    0.859E-02
DAV:  11    -0.631166228676E+03   -0.36559E-06   -0.99377E-06  9600   0.545E-03
  19 F= -.63116623E+03 E0= -.63113732E+03  d E =-.211834E-01  mag=    21.5929
       N       E                     dE             d eps       ncg     rms          rms(c)
DAV:   1    -0.631154214537E+03    0.12014E-01   -0.78726E+00  7680   0.399E+00    0.813E-01
DAV:   2    -0.631175608977E+03   -0.21394E-01   -0.23847E-01 11904   0.926E-01    0.921E-01
DAV:   3    -0.631176161466E+03   -0.55249E-03   -0.15587E-02 12480   0.231E-01    0.687E-01
DAV:   4    -0.631179511555E+03   -0.33501E-02   -0.71981E-03 11952   0.168E-01    0.212E+00
DAV:   5    -0.631183643314E+03   -0.41318E-02   -0.27726E-03 10704   0.122E-01    0.354E+00
DAV:   6    -0.631187934026E+03   -0.42907E-02   -0.29232E-02 10224   0.376E-01    0.223E+00
DAV:   7    -0.631182689502E+03    0.52445E-02   -0.15666E-02 10992   0.223E-01    0.188E+00
DAV:   8    -0.631176860083E+03    0.58294E-02   -0.46188E-03 10896   0.128E-01    0.117E+00
DAV:   9    -0.631176850167E+03    0.99164E-05   -0.29419E-03 12048   0.771E-02    0.925E-01
DAV:  10    -0.631176736397E+03    0.11377E-03   -0.10692E-03 11280   0.551E-02    0.592E-01
DAV:  11    -0.631176799966E+03   -0.63570E-04   -0.54982E-04 11232   0.404E-02    0.211E-01
DAV:  12    -0.631176989329E+03   -0.18936E-03   -0.70246E-05 10512   0.162E-02    0.204E-01
DAV:  13    -0.631177007905E+03   -0.18576E-04   -0.12755E-05 13392   0.520E-03    0.226E-01
DAV:  14    -0.631176929597E+03    0.78308E-04   -0.15078E-04 10944   0.157E-02    0.191E-01
DAV:  15    -0.631176810993E+03    0.11860E-03   -0.41475E-04 10800   0.218E-02    0.148E-01
DAV:  16    -0.631176767271E+03    0.43722E-04   -0.31663E-04 10656   0.260E-02    0.182E-01
DAV:  17    -0.631176502603E+03    0.26467E-03   -0.21480E-03 10368   0.523E-02    0.321E-01
DAV:  18    -0.631176530666E+03   -0.28062E-04   -0.10000E-03 11088   0.409E-02    0.298E-01
DAV:  19    -0.631176579371E+03   -0.48705E-04   -0.26024E-04 10512   0.227E-02    0.260E-01
DAV:  20    -0.631176592049E+03   -0.12679E-04   -0.15691E-04 11184   0.171E-02    0.245E-01
DAV:  21    -0.631176578329E+03    0.13721E-04   -0.13037E-04 10512   0.145E-02    0.250E-01
DAV:  22    -0.631176548218E+03    0.30111E-04   -0.16012E-04 10512   0.143E-02    0.251E-01
DAV:  23    -0.631176450395E+03    0.97823E-04   -0.44313E-04 10704   0.270E-02    0.214E-01
DAV:  24    -0.631176518654E+03   -0.68259E-04   -0.41293E-04  9504   0.284E-02    0.210E-01
DAV:  25    -0.631176551041E+03   -0.32387E-04   -0.82401E-04 10272   0.375E-02    0.214E-01
DAV:  26    -0.631176404005E+03    0.14704E-03   -0.77035E-03  9744   0.102E-01    0.229E-01
DAV:  27    -0.631176752657E+03   -0.34865E-03   -0.10583E-02 10176   0.117E-01    0.447E-01
DAV:  28    -0.631176964431E+03   -0.21177E-03   -0.33785E-03  8832   0.839E-02    0.312E-01
DAV:  29    -0.631177244508E+03   -0.28008E-03   -0.17405E-04 10128   0.203E-02    0.337E-01
DAV:  30    -0.631176712601E+03    0.53191E-03   -0.22200E-03  9888   0.538E-02    0.217E-01
DAV:  31    -0.631176965081E+03   -0.25248E-03   -0.33325E-04  9456   0.256E-02    0.192E-01
DAV:  32    -0.631176984128E+03   -0.19047E-04   -0.22873E-04 10944   0.178E-02    0.195E-01
DAV:  33    -0.631176990648E+03   -0.65195E-05   -0.25241E-04 10272   0.183E-02    0.174E-01
DAV:  34    -0.631177039004E+03   -0.48356E-04   -0.26314E-04 10560   0.168E-02    0.157E-01
DAV:  35    -0.631177138268E+03   -0.99265E-04   -0.12027E-03 10320   0.313E-02    0.130E-01
DAV:  36    -0.631177311861E+03   -0.17359E-03   -0.26611E-03 10464   0.456E-02    0.121E-01
DAV:  37    -0.631177433815E+03   -0.12195E-03   -0.12740E-03 10896   0.351E-02    0.143E-01
DAV:  38    -0.631177525808E+03   -0.91993E-04   -0.54886E-04 11184   0.229E-02    0.138E-01
DAV:  39    -0.631177555751E+03   -0.29943E-04   -0.40757E-05 10128   0.822E-03    0.135E-01
DAV:  40    -0.631177546121E+03    0.96299E-05   -0.77031E-05  9744   0.983E-03    0.144E-01
DAV:  41    -0.631177568609E+03   -0.22488E-04   -0.15530E-04  9600   0.126E-02    0.129E-01
DAV:  42    -0.631177604906E+03   -0.36298E-04   -0.84750E-04  9936   0.311E-02    0.123E-01
DAV:  43    -0.631177660548E+03   -0.55642E-04   -0.55032E-04 10224   0.253E-02    0.124E-01
DAV:  44    -0.631177714746E+03   -0.54198E-04   -0.50427E-05  9408   0.956E-03    0.120E-01
DAV:  45    -0.631177709079E+03    0.56671E-05   -0.28625E-05  8640   0.624E-03    0.122E-01
DAV:  46    -0.631177759841E+03   -0.50762E-04   -0.36311E-04 10032   0.176E-02    0.108E-01
DAV:  47    -0.631177856840E+03   -0.97000E-04   -0.58729E-03  9888   0.723E-02    0.118E-01
DAV:  48    -0.631177970875E+03   -0.11403E-03   -0.22386E-04  9840   0.219E-02    0.117E-01
DAV:  49    -0.631177929522E+03    0.41353E-04   -0.21437E-04 10080   0.153E-02    0.107E-01
DAV:  50    -0.631177988986E+03   -0.59464E-04   -0.40068E-03  9840   0.633E-02    0.164E-01
DAV:  51    -0.631178096748E+03   -0.10776E-03   -0.20787E-04 10080   0.196E-02    0.146E-01
DAV:  52    -0.631177953841E+03    0.14291E-03   -0.71082E-03  9792   0.877E-02    0.348E-01
DAV:  53    -0.631178124109E+03   -0.17027E-03   -0.17823E-04  8784   0.237E-02    0.347E-01
DAV:  54    -0.631178102451E+03    0.21658E-04   -0.15006E-05  9936   0.506E-03    0.344E-01
DAV:  55    -0.631178110420E+03   -0.79689E-05   -0.36753E-05  9648   0.554E-03    0.343E-01
DAV:  56    -0.631178065725E+03    0.44695E-04   -0.13876E-04  9936   0.120E-02    0.387E-01
DAV:  57    -0.631177893204E+03    0.17252E-03   -0.61837E-04  9936   0.326E-02    0.448E-01
DAV:  58    -0.631177922519E+03   -0.29315E-04   -0.54743E-05 10320   0.131E-02    0.431E-01
DAV:  59    -0.631177929372E+03   -0.68525E-05   -0.32424E-05  9792   0.656E-03    0.411E-01
DAV:  60    -0.631177929914E+03   -0.54261E-06   -0.15495E-04 10032   0.117E-02    0.432E-01
DAV:  61    -0.631177852055E+03    0.77860E-04   -0.83424E-04  9744   0.269E-02    0.429E-01
DAV:  62    -0.631177678019E+03    0.17404E-03   -0.32744E-03  9840   0.556E-02    0.429E-01
DAV:  63    -0.631177653359E+03    0.24660E-04   -0.21273E-04  9792   0.193E-02    0.469E-01
DAV:  64    -0.631177655553E+03   -0.21943E-05   -0.87198E-04 10080   0.276E-02    0.465E-01
DAV:  65    -0.631177784588E+03   -0.12903E-03   -0.24674E-03  9744   0.411E-02    0.385E-01
DAV:  66    -0.631178065230E+03   -0.28064E-03   -0.30423E-03  9936   0.452E-02    0.275E-01
DAV:  67    -0.631178488912E+03   -0.42368E-03   -0.14367E-02  9648   0.935E-02    0.178E-01
DAV:  68    -0.631178901935E+03   -0.41302E-03   -0.27983E-04 10224   0.269E-02    0.175E-01
DAV:  69    -0.631178922770E+03   -0.20836E-04   -0.18710E-05 11808   0.632E-03    0.186E-01
DAV:  70    -0.631178915087E+03    0.76834E-05   -0.22603E-06  6240   0.207E-03    0.185E-01
DAV:  71    -0.631178910219E+03    0.48675E-05   -0.14874E-06  5376   0.134E-03    0.188E-01
DAV:  72    -0.631179062052E+03   -0.15183E-03   -0.40830E-03  9792   0.544E-02    0.283E-01
DAV:  73    -0.631178803611E+03    0.25844E-03   -0.68623E-03  9984   0.690E-02    0.281E-01
DAV:  74    -0.631178593538E+03    0.21007E-03   -0.40145E-03  9840   0.535E-02    0.310E-01
DAV:  75    -0.631178442380E+03    0.15116E-03   -0.24467E-03 10080   0.430E-02    0.317E-01
DAV:  76    -0.631178395034E+03    0.47346E-04   -0.60899E-04 10608   0.224E-02    0.318E-01
DAV:  77    -0.631177903582E+03    0.49145E-03   -0.12160E-02  9600   0.878E-02    0.375E-01
DAV:  78    -0.631177711181E+03    0.19240E-03   -0.34430E-03 10128   0.521E-02    0.353E-01
DAV:  79    -0.631177347299E+03    0.36388E-03   -0.92868E-03  9600   0.802E-02    0.436E-01
DAV:  80    -0.631177401481E+03   -0.54182E-04   -0.33023E-04 10416   0.258E-02    0.322E-01
DAV:  81    -0.631177132355E+03    0.26913E-03   -0.56753E-03  9888   0.604E-02    0.356E-01
DAV:  82    -0.631177054384E+03    0.77971E-04   -0.10707E-03 10464   0.344E-02    0.168E-01
DAV:  83    -0.631176648413E+03    0.40597E-03   -0.20248E-02  9744   0.116E-01    0.502E-01
DAV:  84    -0.631176754644E+03   -0.10623E-03   -0.41453E-03 10416   0.630E-02    0.212E-01
DAV:  85    -0.631176493573E+03    0.26107E-03   -0.17365E-02  9744   0.107E-01    0.572E-01
DAV:  86    -0.631176438233E+03    0.55339E-04   -0.47507E-03 10224   0.640E-02    0.190E-01
DAV:  87    -0.631176557481E+03   -0.11925E-03   -0.18264E-03 10128   0.405E-02    0.324E-01
DAV:  88    -0.631176443536E+03    0.11394E-03   -0.22588E-03  9936   0.385E-02    0.478E-01
DAV:  89    -0.631176378537E+03    0.65000E-04   -0.94789E-04 10368   0.304E-02    0.346E-01
DAV:  90    -0.631176379201E+03   -0.66429E-06   -0.44566E-04 10080   0.153E-02
  20 F= -.63117638E+03 E0= -.63114842E+03  d E =-.101505E-01  mag=    21.6040
       N       E                     dE             d eps       ncg     rms          rms(c)
DAV:   1    -0.631176104619E+03    0.27392E-03   -0.80745E-02  7872   0.404E-01    0.393E-01
DAV:   2    -0.631174703673E+03    0.14009E-02   -0.25376E-02 10752   0.324E-01    0.943E-01
DAV:   3    -0.631181028394E+03   -0.63247E-02   -0.10418E-02 11088   0.185E-01    0.275E+00
DAV:   4    -0.631176781925E+03    0.42465E-02   -0.37935E-03 10224   0.124E-01    0.177E+00
DAV:   5    -0.631175186720E+03    0.15952E-02   -0.11104E-03 10704   0.700E-02    0.405E-01
DAV:   6    -0.631176307393E+03   -0.11207E-02   -0.56266E-04 11904   0.412E-02    0.134E-01
DAV:   7    -0.631176659846E+03   -0.35245E-03   -0.18281E-04 11184   0.218E-02    0.196E-01
DAV:   8    -0.631176691282E+03   -0.31436E-04   -0.22747E-05 11040   0.705E-03    0.219E-01
DAV:   9    -0.631176672532E+03    0.18751E-04   -0.30520E-06  8400   0.299E-03    0.225E-01
DAV:  10    -0.631176664605E+03    0.79263E-05   -0.66433E-07  5280   0.165E-03    0.223E-01
DAV:  11    -0.631176567091E+03    0.97514E-04   -0.17753E-04  9936   0.130E-02    0.201E-01
DAV:  12    -0.631176349471E+03    0.21762E-03   -0.65442E-04 10032   0.304E-02    0.208E-01
DAV:  13    -0.631176253886E+03    0.95585E-04   -0.67647E-04 10512   0.300E-02    0.269E-01
DAV:  14    -0.631176174488E+03    0.79399E-04   -0.54269E-04 10992   0.261E-02    0.291E-01
DAV:  15    -0.631176087147E+03    0.87341E-04   -0.34340E-04 10656   0.227E-02    0.195E-01
DAV:  16    -0.631176168078E+03   -0.80931E-04   -0.36116E-05  8976   0.102E-02    0.191E-01
DAV:  17    -0.631176152980E+03    0.15098E-04   -0.37133E-05  9360   0.708E-03    0.193E-01
DAV:  18    -0.631176213771E+03   -0.60791E-04   -0.15271E-04  9312   0.163E-02    0.204E-01
DAV:  19    -0.631176263524E+03   -0.49753E-04   -0.16718E-04  9984   0.152E-02    0.210E-01
DAV:  20    -0.631176318637E+03   -0.55113E-04   -0.25009E-03  9792   0.586E-02    0.153E-01
DAV:  21    -0.631176526633E+03   -0.20800E-03   -0.87779E-04 11088   0.362E-02    0.122E-01
DAV:  22    -0.631175541220E+03    0.98541E-03   -0.92434E-03  9744   0.117E-01    0.141E-01
DAV:  23    -0.631175750229E+03   -0.20901E-03   -0.31514E-03 10080   0.680E-02    0.177E-01
DAV:  24    -0.631175522366E+03    0.22786E-03   -0.41014E-03 10848   0.734E-02    0.349E-01
DAV:  25    -0.631176020682E+03   -0.49832E-03   -0.27884E-03  9408   0.743E-02    0.274E-01
DAV:  26    -0.631176048801E+03   -0.28120E-04   -0.36591E-03 10128   0.728E-02
