<?xml version="1.0" encoding="ISO-8859-1"?>
<modeling>
 <generator>
  <i name="program" type="string">vasp </i>
  <i name="version" type="string">6.4.3  </i>
  <i name="subversion" type="string">19Mar24 (build Mar 01 2025 17:53:50) complex                          parallel </i>
  <i name="platform" type="string">Shaheen </i>
  <i name="date" type="string">2025 04 20 </i>
  <i name="time" type="string">05:03:37 </i>
 </generator>
 <incar>
  <i type="int" name="ISTART">     1</i>
  <i type="string" name="PREC">Accurate   (Precision level: Normal or Accurate, set Accurate when perform structure lattice relaxation calculation)</i>
  <i type="logical" name="ADDGRID"> T  </i>
  <i type="int" name="ISPIN">     2</i>
  <i type="int" name="NELM">    90</i>
  <i type="int" name="NELMIN">     6</i>
  <i type="int" name="IBRION">     2</i>
  <i name="EDIFF">      0.00000100</i>
  <i name="EDIFFG">     -0.02000000</i>
  <i type="int" name="NSW">   300</i>
  <i type="int" name="ISIF">     2</i>
  <i name="ENCUT">    520.00000000</i>
  <v name="MAGMOM">      0.60000000      0.60000000      0.60000000      0.60000000      0.60000000      0.60000000      1.00000000      1.00000000      1.00000000      1.00000000      1.00000000      1.00000000      1.00000000      1.00000000      1.00000000      1.00000000      1.00000000      1.00000000      1.00000000      1.00000000
      1.00000000      1.00000000      1.00000000      1.00000000      1.00000000      1.00000000      1.00000000      0.60000000      0.60000000      0.60000000      0.60000000      0.60000000      0.60000000      0.60000000      0.60000000      0.60000000      0.60000000      0.60000000      0.60000000      0.60000000
      0.60000000      0.60000000      0.60000000      0.60000000      0.60000000      0.60000000      0.60000000      0.60000000      0.60000000      0.60000000      0.60000000      0.60000000      0.60000000      0.60000000      0.60000000      0.60000000      0.60000000      0.60000000      0.60000000      0.60000000
      0.60000000      0.60000000      0.60000000      0.60000000      0.60000000      0.60000000      0.60000000      0.60000000      0.60000000      0.60000000      0.60000000      0.60000000      0.60000000      0.60000000      0.60000000      0.60000000      0.60000000      0.60000000      0.60000000      0.60000000
      0.60000000      0.60000000      0.60000000      0.60000000      0.60000000      0.60000000      0.60000000      0.60000000      0.60000000      0.60000000</v>
  <i type="logical" name="LREAL"> F  </i>
  <i type="int" name="ISMEAR">     0</i>
  <i name="SIGMA">      0.05000000</i>
  <i type="int" name="LMAXMIX">     6</i>
  <i type="logical" name="LWAVE"> F  </i>
  <i type="logical" name="LCHARG"> F  </i>
  <i type="logical" name="LASPH"> T  </i>
  <i type="logical" name="LDAU"> T  </i>
  <i type="int" name="LDAUTYPE">     2</i>
  <v type="int" name="LDAUL">     2     3    -1</v>
  <v name="LDAUU">      2.00000000      5.00000000      0.00000000</v>
  <v name="LDAUJ">      0.00000000      0.00000000      0.00000000</v>
 </incar>
 <primitive_cell>
  <structure name="primitive_cell" >
   <crystal>
    <varray name="basis" >
     <v>      11.59820000       0.00000000       0.00000000 </v>
     <v>      -5.79910000      10.04433584       0.00000000 </v>
     <v>       0.00000000       0.00000000      21.04820000 </v>
    </varray>
    <i name="volume">   2452.03565189 </i>
    <varray name="rec_basis" >
     <v>       0.08622028       0.04977930       0.00000000 </v>
     <v>       0.00000000       0.09955860       0.00000000 </v>
     <v>       0.00000000       0.00000000       0.04751000 </v>
    </varray>
   </crystal>
   <varray name="positions" >
    <v>       0.00000000       0.00000000       0.45993000 </v>
    <v>       0.66667000       0.00000000       0.45993000 </v>
    <v>       1.00000000       0.33333000       0.45993000 </v>
    <v>       0.33333000       0.33333000       0.45993000 </v>
    <v>       0.33333000       0.66667000       0.45993000 </v>
    <v>       0.66667000       0.66667000       0.45993000 </v>
    <v>       0.22222000       0.11111000       0.30996000 </v>
    <v>       0.11111000       0.22222000       0.15999000 </v>
    <v>       0.33333000       0.00000000       0.45993000 </v>
    <v>       0.55556000       0.11111000       0.30996000 </v>
    <v>       0.44444000       0.22222000       0.15999000 </v>
    <v>       0.88889000       0.11111000       0.30996000 </v>
    <v>       0.77778000       0.22222000       0.15999000 </v>
    <v>       0.22222000       0.44444000       0.30996000 </v>
    <v>       0.11111000       0.55556000       0.15999000 </v>
    <v>       0.55556000       0.44444000       0.30996000 </v>
    <v>       0.44444000       0.55556000       0.15999000 </v>
    <v>       0.66667000       0.33333000       0.45993000 </v>
    <v>       0.88889000       0.44444000       0.30996000 </v>
    <v>       0.77778000       0.55556000       0.15999000 </v>
    <v>       1.00000000       0.66667000       0.45993000 </v>
    <v>       0.22222000       0.77778000       0.30996000 </v>
    <v>       0.11111000       0.88889000       0.15999000 </v>
    <v>       0.55556000       0.77778000       0.30996000 </v>
    <v>       0.44444000       0.88889000       0.15999000 </v>
    <v>       0.88889000       0.77778000       0.30996000 </v>
    <v>       0.77778000       0.88889000       0.15999000 </v>
    <v>       0.00000000       0.00000000       0.12250000 </v>
    <v>       0.11111000       0.22222000       0.27247000 </v>
    <v>       0.22222000       0.11111000       0.42244000 </v>
    <v>       0.11111000       0.22222000       0.04751000 </v>
    <v>       0.11111000       0.22222000       0.49742000 </v>
    <v>       0.00000000       0.00000000       0.34745000 </v>
    <v>       0.22222000       0.11111000       0.19748000 </v>
    <v>       0.33333000       0.00000000       0.12250000 </v>
    <v>       0.44444000       0.22222000       0.27247000 </v>
    <v>       0.55556000       0.11111000       0.42244000 </v>
    <v>       0.44444000       0.22222000       0.04751000 </v>
    <v>       0.44444000       0.22222000       0.49742000 </v>
    <v>       0.33333000       0.00000000       0.34745000 </v>
    <v>       0.55556000       0.11111000       0.19748000 </v>
    <v>       0.66667000       0.00000000       0.12250000 </v>
    <v>       0.77778000       0.22222000       0.27247000 </v>
    <v>       0.88889000       0.11111000       0.42244000 </v>
    <v>       0.77778000       0.22222000       0.04751000 </v>
    <v>       0.77778000       0.22222000       0.49742000 </v>
    <v>       0.66667000       0.00000000       0.34745000 </v>
    <v>       0.88889000       0.11111000       0.19748000 </v>
    <v>       1.00000000       0.33333000       0.12250000 </v>
    <v>       0.11111000       0.55556000       0.27247000 </v>
    <v>       0.22222000       0.44444000       0.42244000 </v>
    <v>       0.11111000       0.55556000       0.04751000 </v>
    <v>       0.11111000       0.55556000       0.49742000 </v>
    <v>       1.00000000       0.33333000       0.34745000 </v>
    <v>       0.22222000       0.44444000       0.19748000 </v>
    <v>       0.33333000       0.33333000       0.12250000 </v>
    <v>       0.44444000       0.55556000       0.27247000 </v>
    <v>       0.55556000       0.44444000       0.42244000 </v>
    <v>       0.44444000       0.55556000       0.04751000 </v>
    <v>       0.44444000       0.55556000       0.49742000 </v>
    <v>       0.33333000       0.33333000       0.34745000 </v>
    <v>       0.55556000       0.44444000       0.19748000 </v>
    <v>       0.66667000       0.33333000       0.12250000 </v>
    <v>       0.77778000       0.55556000       0.27247000 </v>
    <v>       0.88889000       0.44444000       0.42244000 </v>
    <v>       0.77778000       0.55556000       0.04751000 </v>
    <v>       0.77778000       0.55556000       0.49742000 </v>
    <v>       0.66667000       0.33333000       0.34745000 </v>
    <v>       0.88889000       0.44444000       0.19748000 </v>
    <v>       1.00000000       0.66667000       0.12250000 </v>
    <v>       0.11111000       0.88889000       0.27247000 </v>
    <v>       0.22222000       0.77778000       0.42244000 </v>
    <v>       0.11111000       0.88889000       0.04751000 </v>
    <v>       0.11111000       0.88889000       0.49742000 </v>
    <v>       1.00000000       0.66667000       0.34745000 </v>
    <v>       0.22222000       0.77778000       0.19748000 </v>
    <v>       0.33333000       0.66667000       0.12250000 </v>
    <v>       0.44444000       0.88889000       0.27247000 </v>
    <v>       0.55556000       0.77778000       0.42244000 </v>
    <v>       0.44444000       0.88889000       0.04751000 </v>
    <v>       0.44444000       0.88889000       0.49742000 </v>
    <v>       0.33333000       0.66667000       0.34745000 </v>
    <v>       0.55556000       0.77778000       0.19748000 </v>
    <v>       0.66667000       0.66667000       0.12250000 </v>
    <v>       0.77778000       0.88889000       0.27247000 </v>
    <v>       0.88889000       0.77778000       0.42244000 </v>
    <v>       0.77778000       0.88889000       0.04751000 </v>
    <v>       0.77778000       0.88889000       0.49742000 </v>
    <v>       0.66667000       0.66667000       0.34745000 </v>
    <v>       0.88889000       0.77778000       0.19748000 </v>
   </varray>
  </structure>
  <varray name="primitive_index" >
   <v type="int" >        1 </v>
   <v type="int" >        2 </v>
   <v type="int" >        3 </v>
   <v type="int" >        4 </v>
   <v type="int" >        5 </v>
   <v type="int" >        6 </v>
   <v type="int" >        7 </v>
   <v type="int" >        8 </v>
   <v type="int" >        9 </v>
   <v type="int" >       10 </v>
   <v type="int" >       11 </v>
   <v type="int" >       12 </v>
   <v type="int" >       13 </v>
   <v type="int" >       14 </v>
   <v type="int" >       15 </v>
   <v type="int" >       16 </v>
   <v type="int" >       17 </v>
   <v type="int" >       18 </v>
   <v type="int" >       19 </v>
   <v type="int" >       20 </v>
   <v type="int" >       21 </v>
   <v type="int" >       22 </v>
   <v type="int" >       23 </v>
   <v type="int" >       24 </v>
   <v type="int" >       25 </v>
   <v type="int" >       26 </v>
   <v type="int" >       27 </v>
   <v type="int" >       28 </v>
   <v type="int" >       29 </v>
   <v type="int" >       30 </v>
   <v type="int" >       31 </v>
   <v type="int" >       32 </v>
   <v type="int" >       33 </v>
   <v type="int" >       34 </v>
   <v type="int" >       35 </v>
   <v type="int" >       36 </v>
   <v type="int" >       37 </v>
   <v type="int" >       38 </v>
   <v type="int" >       39 </v>
   <v type="int" >       40 </v>
   <v type="int" >       41 </v>
   <v type="int" >       42 </v>
   <v type="int" >       43 </v>
   <v type="int" >       44 </v>
   <v type="int" >       45 </v>
   <v type="int" >       46 </v>
   <v type="int" >       47 </v>
   <v type="int" >       48 </v>
   <v type="int" >       49 </v>
   <v type="int" >       50 </v>
   <v type="int" >       51 </v>
   <v type="int" >       52 </v>
   <v type="int" >       53 </v>
   <v type="int" >       54 </v>
   <v type="int" >       55 </v>
   <v type="int" >       56 </v>
   <v type="int" >       57 </v>
   <v type="int" >       58 </v>
   <v type="int" >       59 </v>
   <v type="int" >       60 </v>
   <v type="int" >       61 </v>
   <v type="int" >       62 </v>
   <v type="int" >       63 </v>
   <v type="int" >       64 </v>
   <v type="int" >       65 </v>
   <v type="int" >       66 </v>
   <v type="int" >       67 </v>
   <v type="int" >       68 </v>
   <v type="int" >       69 </v>
   <v type="int" >       70 </v>
   <v type="int" >       71 </v>
   <v type="int" >       72 </v>
   <v type="int" >       73 </v>
   <v type="int" >       74 </v>
   <v type="int" >       75 </v>
   <v type="int" >       76 </v>
   <v type="int" >       77 </v>
   <v type="int" >       78 </v>
   <v type="int" >       79 </v>
   <v type="int" >       80 </v>
   <v type="int" >       81 </v>
   <v type="int" >       82 </v>
   <v type="int" >       83 </v>
   <v type="int" >       84 </v>
   <v type="int" >       85 </v>
   <v type="int" >       86 </v>
   <v type="int" >       87 </v>
   <v type="int" >       88 </v>
   <v type="int" >       89 </v>
   <v type="int" >       90 </v>
  </varray>
 </primitive_cell>
 <kpoints>
  <generation param="Monkhorst-Pack">
   <v type="int" name="divisions">       3        3        1 </v>
   <v name="usershift">      0.00000000       0.00000000       0.00000000 </v>
   <v name="genvec1">      0.33333333      -0.00000000       0.00000000 </v>
   <v name="genvec2">      0.00000000       0.33333333       0.00000000 </v>
   <v name="genvec3">      0.00000000       0.00000000       1.00000000 </v>
   <v name="shift">      0.00000000       0.00000000       0.00000000 </v>
  </generation>
  <varray name="kpointlist" >
   <v>       0.00000000       0.00000000       0.00000000 </v>
   <v>       0.33333333      -0.00000000       0.00000000 </v>
   <v>      -0.33333333       0.33333333       0.00000000 </v>
   <v>       0.33333333       0.33333333       0.00000000 </v>
  </varray>
  <varray name="weights" >
   <v>       0.11111111 </v>
   <v>       0.44444444 </v>
   <v>       0.22222222 </v>
   <v>       0.22222222 </v>
  </varray>
 </kpoints>
 <parameters>
  <separator name="general" >
   <i type="string" name="SYSTEM">unknown system</i>
   <i type="logical" name="LCOMPAT"> F  </i>
  </separator>
  <separator name="electronic" >
   <i type="string" name="PREC">accura</i>
   <i name="ENMAX">    520.00000000</i>
   <i name="ENAUG">    605.39200000</i>
   <i name="EDIFF">      0.00000100</i>
   <i type="int" name="IALGO">    38</i>
   <i type="int" name="IWAVPR">    11</i>
   <i type="int" name="NBANDS">   480</i>
   <i type="int" name="NBANDSLOW">    -1</i>
   <i type="int" name="NBANDSHIGH">    -1</i>
   <i name="NELECT">    684.00000000</i>
   <i type="int" name="TURBO">     0</i>
   <i type="int" name="IRESTART">     0</i>
   <i type="int" name="NREBOOT">     0</i>
   <i type="int" name="NMIN">     0</i>
   <i name="EREF">      0.00000000</i>
   <separator name="electronic smearing" >
    <i type="int" name="ISMEAR">     0</i>
    <i name="SIGMA">      0.05000000</i>
    <i name="KSPACING">      0.50000000</i>
    <i type="logical" name="KGAMMA"> T  </i>
    <i type="logical" name="KBLOWUP"> T  </i>
   </separator>
   <separator name="electronic projectors" >
    <i type="logical" name="LREAL"> F  </i>
    <v name="ROPT">      0.00000000      0.00000000      0.00000000</v>
    <i type="int" name="LMAXPAW">  -100</i>
    <i type="int" name="LMAXMIX">     6</i>
    <i type="logical" name="NLSPLINE"> F  </i>
   </separator>
   <separator name="electronic startup" >
    <i type="int" name="ISTART">     0</i>
    <i type="int" name="ICHARG">     2</i>
    <i type="int" name="INIWAV">     1</i>
   </separator>
   <separator name="electronic spin" >
    <i type="int" name="ISPIN">     2</i>
    <i type="logical" name="LNONCOLLINEAR"> F  </i>
    <v name="MAGMOM">      0.60000000      0.60000000      0.60000000      0.60000000      0.60000000      0.60000000      1.00000000      1.00000000      1.00000000      1.00000000      1.00000000      1.00000000      1.00000000      1.00000000      1.00000000      1.00000000      1.00000000      1.00000000      1.00000000      1.00000000
      1.00000000      1.00000000      1.00000000      1.00000000      1.00000000      1.00000000      1.00000000      0.60000000      0.60000000      0.60000000      0.60000000      0.60000000      0.60000000      0.60000000      0.60000000      0.60000000      0.60000000      0.60000000      0.60000000      0.60000000
      0.60000000      0.60000000      0.60000000      0.60000000      0.60000000      0.60000000      0.60000000      0.60000000      0.60000000      0.60000000      0.60000000      0.60000000      0.60000000      0.60000000      0.60000000      0.60000000      0.60000000      0.60000000      0.60000000      0.60000000
      0.60000000      0.60000000      0.60000000      0.60000000      0.60000000      0.60000000      0.60000000      0.60000000      0.60000000      0.60000000      0.60000000      0.60000000      0.60000000      0.60000000      0.60000000      0.60000000      0.60000000      0.60000000      0.60000000      0.60000000
      0.60000000      0.60000000      0.60000000      0.60000000      0.60000000      0.60000000      0.60000000      0.60000000      0.60000000      0.60000000</v>
    <i name="NUPDOWN">     -1.00000000</i>
    <i type="logical" name="LSORBIT"> F  </i>
    <v name="SAXIS">      0.00000000      0.00000000      1.00000000</v>
    <i type="logical" name="LSPIRAL"> F  </i>
    <v name="QSPIRAL">      0.00000000      0.00000000      0.00000000</v>
    <i type="logical" name="LZEROZ"> F  </i>
   </separator>
   <separator name="electronic exchange-correlation" >
    <i type="logical" name="LASPH"> T  </i>
   </separator>
   <separator name="electronic convergence" >
    <i type="int" name="NELM">    90</i>
    <i type="int" name="NELMDL">     0</i>
    <i type="int" name="NELMIN">     6</i>
    <i name="ENINI">    520.00000000</i>
    <separator name="electronic convergence detail" >
     <i type="logical" name="LDIAG"> T  </i>
     <i type="logical" name="LSUBROT"> F  </i>
     <i name="WEIMIN">      0.00100000</i>
     <i name="EBREAK">      0.00000000</i>
     <i name="DEPER">      0.30000000</i>
     <i type="int" name="NRMM">     4</i>
     <i name="TIME">      0.40000000</i>
    </separator>
   </separator>
   <separator name="electronic mixer" >
    <i name="AMIX">      0.40000000</i>
    <i name="BMIX">      1.00000000</i>
    <i name="AMIN">      0.10000000</i>
    <i name="AMIX_MAG">      1.60000000</i>
    <i name="BMIX_MAG">      1.00000000</i>
    <separator name="electronic mixer details" >
     <i type="int" name="IMIX">     4</i>
     <i type="logical" name="MIXFIRST"> F  </i>
     <i type="int" name="MAXMIX">   -45</i>
     <i name="WC">    100.00000000</i>
     <i type="int" name="INIMIX">     1</i>
     <i type="int" name="MIXPRE">     1</i>
     <i type="int" name="MREMOVE">     5</i>
    </separator>
   </separator>
   <separator name="electronic dipolcorrection" >
    <i type="logical" name="LDIPOL"> F  </i>
    <i type="logical" name="LMONO"> F  </i>
    <i type="int" name="IDIPOL">     0</i>
    <i name="EPSILON">      1.00000000</i>
    <v name="DIPOL">   -100.00000000   -100.00000000   -100.00000000</v>
    <i name="EFIELD">      0.00000000</i>
    <i type="logical" name="LVACPOTAV"> F  </i>
   </separator>
  </separator>
  <separator name="grids" >
   <i type="int" name="NGX">    90</i>
   <i type="int" name="NGY">    90</i>
   <i type="int" name="NGZ">   160</i>
   <i type="int" name="NGXF">   180</i>
   <i type="int" name="NGYF">   180</i>
   <i type="int" name="NGZF">   320</i>
   <i type="logical" name="ADDGRID"> T  </i>
  </separator>
  <separator name="ionic" >
   <i type="int" name="NSW">   300</i>
   <i type="int" name="IBRION">     2</i>
   <i type="int" name="MDALGO">     0</i>
   <i type="int" name="ISIF">     2</i>
   <i name="PSTRESS">      0.00000000</i>
   <i name="EDIFFG">     -0.02000000</i>
   <i type="int" name="NFREE">     1</i>
   <i name="POTIM">      0.50000000</i>
   <i name="SMASS">     -3.00000000</i>
   <i name="SCALEE">      1.00000000</i>
  </separator>
  <separator name="ionic md" >
   <i name="TEBEG">      0.00010000</i>
   <i name="TEEND">      0.00010000</i>
   <i type="int" name="NBLOCK">     1</i>
   <i type="int" name="KBLOCK">   300</i>
   <i type="int" name="NPACO">   256</i>
   <i name="APACO">     10.00000000</i>
  </separator>
  <separator name="symmetry" >
   <i type="int" name="ISYM">     2</i>
   <i name="SYMPREC">      0.00001000</i>
  </separator>
  <separator name="dos" >
   <i type="int" name="LORBIT">     0</i>
   <v name="RWIGS">     -1.00000000     -1.00000000     -1.00000000</v>
   <i type="int" name="NEDOS">   301</i>
   <i name="EMIN">     10.00000000</i>
   <i name="EMAX">    -10.00000000</i>
   <i name="EFERMI">      0.00000000</i>
  </separator>
  <separator name="writing" >
   <i type="int" name="NWRITE">     2</i>
   <i type="logical" name="LWAVE"> F  </i>
   <i type="logical" name="LDOWNSAMPLE"> F  </i>
   <i type="logical" name="LCHARG"> F  </i>
   <i type="logical" name="LPARD"> F  </i>
   <i type="logical" name="LVTOT"> F  </i>
   <i type="logical" name="LVHAR"> F  </i>
   <i type="logical" name="LELF"> F  </i>
   <i type="logical" name="LOPTICS"> F  </i>
   <v name="STM">      0.00000000      0.00000000      0.00000000      0.00000000      0.00000000      0.00000000      0.00000000</v>
  </separator>
  <separator name="performance" >
   <i type="int" name="NPAR">    48</i>
   <i type="int" name="NSIM">     4</i>
   <i type="int" name="NBLK">    -1</i>
   <i type="logical" name="LPLANE"> T  </i>
   <i type="logical" name="LSCALAPACK"> T  </i>
   <i type="logical" name="LSCAAWARE"> T  </i>
   <i type="logical" name="LSCALU"> F  </i>
   <i type="logical" name="LASYNC"> F  </i>
   <i type="logical" name="LORBITALREAL"> F  </i>
  </separator>
  <separator name="miscellaneous" >
   <i type="int" name="IDIOT">     3</i>
   <i type="int" name="PHON_NSTRUCT">    -1</i>
   <i type="logical" name="LMUSIC"> F  </i>
   <v name="POMASS">    192.22000000    140.11500000     16.00000000</v>
   <v name="DARWINR">      0.00000000      0.00000000      0.00000000</v>
   <v name="DARWINV">      1.00000000      1.00000000      1.00000000</v>
   <i type="logical" name="LCORR"> T  </i>
  </separator>
  <i type="logical" name="GGA_COMPAT"> T  </i>
  <i type="logical" name="LBERRY"> F  </i>
  <i type="int" name="ICORELEVEL">     0</i>
  <i type="logical" name="LDAU"> T  </i>
  <v type="int" name="LDAUTYPE">     2</v>
  <v type="int" name="LDAUL">     2</v>
  <v name="LDAUU">      2.00000000</v>
  <v name="LDAUJ">      0.00000000</v>
  <i type="int" name="LDAUPRINT">     0</i>
  <i type="int" name="I_CONSTRAINED_M">     0</i>
  <separator name="electronic exchange-correlation" >
   <i type="string" name="GGA    ">PE</i>
   <i type="string" name="XC_C">1</i>
   <i type="int" name="VOSKOWN">     0</i>
   <i type="logical" name="LHFCALC"> F  </i>
   <i type="string" name="PRECFOCK"></i>
   <i type="logical" name="LSYMGRAD"> F  </i>
   <i type="logical" name="LHFONE"> F  </i>
   <i type="logical" name="LRHFCALC"> F  </i>
   <i type="logical" name="LTHOMAS"> F  </i>
   <i type="logical" name="LMODELHF"> F  </i>
   <i type="logical" name="LFOCKACE"> F  </i>
   <i name="ENCUT4O">     -1.00000000</i>
   <i type="int" name="EXXOEP">     0</i>
   <i type="int" name="FOURORBIT">     0</i>
   <i name="AEXX">      0.00000000</i>
   <i name="HFALPHA">      0.00000000</i>
   <i name="MCALPHA">      0.00000000</i>
   <i name="ALDAX">      1.00000000</i>
   <i name="AGGAX">      1.00000000</i>
   <i name="AMGGAX">      1.00000000</i>
   <i name="ALDAC">      1.00000000</i>
   <i name="AGGAC">      1.00000000</i>
   <i name="AMGGAC">      1.00000000</i>
   <i type="int" name="NKREDX">     1</i>
   <i type="int" name="NKREDY">     1</i>
   <i type="int" name="NKREDZ">     1</i>
   <i type="logical" name="SHIFTRED"> F  </i>
   <i type="logical" name="ODDONLY"> F  </i>
   <i type="logical" name="EVENONLY"> F  </i>
   <i type="int" name="LMAXFOCK">     0</i>
   <i type="int" name="NMAXFOCKAE">     0</i>
   <i type="logical" name="LFOCKAEDFT"> F  </i>
   <i name="HFSCREEN">      0.00000000</i>
   <i name="HFSCREENC">      0.00000000</i>
   <i type="int" name="NBANDSGWLOW">     0</i>
  </separator>
  <separator name="vdW DFT" >
   <i type="logical" name="LUSE_VDW"> F  </i>
   <i type="int" name="IVDW_NL">    -1</i>
   <i type="logical" name="LSPIN_VDW"> F  </i>
   <i name="ZAB_VDW">     -0.84910000</i>
   <i name="GAMMA_VDW">      1.39626340</i>
   <i name="ALPHA_VDW">      0.00000000</i>
   <i name="PARAM1">      0.12340000</i>
   <i name="PARAM2">      1.00000000</i>
   <i name="BPARAM">      6.30000000</i>
   <i name="CPARAM">      0.00930000</i>
  </separator>
  <separator name="model GW" >
   <i type="int" name="MODEL_GW">     0</i>
   <i name="MODEL_EPS0">     16.34690435</i>
   <i name="MODEL_ALPHA">      1.00000000</i>
  </separator>
  <separator name="linear response parameters" >
   <i type="logical" name="LEPSILON"> F  </i>
   <i type="logical" name="LRPA"> F  </i>
   <i type="logical" name="LNABLA"> F  </i>
   <i type="logical" name="LVEL"> F  </i>
   <i name="CSHIFT">      0.10000000</i>
   <i name="OMEGAMAX">     -1.00000000</i>
   <i name="DEG_THRESHOLD">      0.00200000</i>
   <i name="RTIME">     -0.10000000</i>
   <i name="WPLASMAI">      0.00000000</i>
   <v name="DFIELD">      0.00000000      0.00000000      0.00000000</v>
   <v name="WPLASMA">      0.00000000      0.00000000      0.00000000      0.00000000      0.00000000      0.00000000      0.00000000      0.00000000      0.00000000</v>
  </separator>
  <separator name="orbital magnetization" >
   <i type="logical" name="NUCIND"> F  </i>
   <v name="MAGPOS">      0.00000000      0.00000000      0.00000000</v>
   <i type="logical" name="LNICSALL"> T  </i>
   <i type="logical" name="ORBITALMAG"> F  </i>
   <i type="logical" name="LMAGBLOCH"> F  </i>
   <i type="logical" name="LCHIMAG"> F  </i>
   <i type="logical" name="LGAUGE"> T  </i>
   <i type="int" name="MAGATOM">     0</i>
   <v name="MAGDIPOL">      0.00000000      0.00000000      0.00000000</v>
   <v name="AVECCONST">      0.00000000      0.00000000      0.00000000</v>
  </separator>
  <separator name="response functions" >
   <i type="logical" name="LALL_IN_ONE"> F  </i>
   <i type="int" name="IALL_IN_ONE">    -1</i>
   <i type="int" name="NBANDS_WAVE">    -1</i>
   <i type="logical" name="LFINITE_TEMPERATURE"> F  </i>
   <i type="logical" name="LADDER"> F  </i>
   <i type="logical" name="LRPAFORCE"> F  </i>
   <i type="logical" name="LFXC"> F  </i>
   <i type="logical" name="LHARTREE"> T  </i>
   <i type="int" name="IBSE">     0</i>
   <v type="int" name="KPOINT">    -1     0     0     0</v>
   <i type="logical" name="LTCTC"> F  </i>
   <i type="logical" name="LTCTE"> F  </i>
   <i type="logical" name="LTETE"> F  </i>
   <i type="logical" name="LTRIPLET"> F  </i>
   <i type="logical" name="LFXCEPS"> F  </i>
   <i type="logical" name="LFXHEG"> F  </i>
   <i type="int" name="NATURALO">     2</i>
   <i type="logical" name="LHOLEGF"> F  </i>
   <i type="logical" name="L2ORDER"> F  </i>
   <i type="logical" name="LDMP1"> F  </i>
   <i type="logical" name="LMP2LT"> F  </i>
   <i type="logical" name="LSMP2LT"> F  </i>
   <i type="logical" name="LGWLF"> F  </i>
   <i name="ENCUTGW">     -1.60000002</i>
   <i name="ENCUTGWSOFT">     -1.60000002</i>
   <i name="ENCUTLF">     -1.00000000</i>
   <i type="logical" name="ESF_SPLINES"> F  </i>
   <i name="ESF_CONV">      0.01000000</i>
   <i type="int" name="ESF_NINTER">    15</i>
   <i type="int" name="LMAXMP2">    -1</i>
   <i name="SCISSOR">      0.00000000</i>
   <i type="int" name="NOMEGA">     0</i>
   <i type="int" name="NOMEGAR">     0</i>
   <i type="int" name="NBANDSGW">    -1</i>
   <i type="int" name="NBANDSO">    -1</i>
   <i type="int" name="NBANDSV">    -1</i>
   <i type="int" name="NELMGW">     1</i>
   <i type="int" name="NELMHF">     1</i>
   <i type="int" name="DIM">     3</i>
   <i type="int" name="IESPILON">     4</i>
   <i type="int" name="ANTIRES">     0</i>
   <i name="OMEGAMAX">    -30.00000000</i>
   <i name="OMEGAMIN">    -30.00000000</i>
   <i name="OMEGATL">   -200.00000000</i>
   <i type="int" name="OMEGAGRID">     0</i>
   <i name="CSHIFT">     -0.10000000</i>
   <i type="logical" name="LSELFENERGY"> F  </i>
   <i type="logical" name="LSPECTRAL"> F  </i>
   <i type="logical" name="LSPECTRALGW"> F  </i>
   <i type="logical" name="LSINGLES"> F  </i>
   <i type="logical" name="LFERMIGW"> F  </i>
   <i type="logical" name="ODDONLYGW"> F  </i>
   <i type="logical" name="EVENONLYGW"> F  </i>
   <i type="int" name="NKREDLFX">     1</i>
   <i type="int" name="NKREDLFY">     1</i>
   <i type="int" name="NKREDLFZ">     1</i>
   <i type="int" name="MAXMEM">  2800</i>
   <i type="int" name="TELESCOPE">     0</i>
   <i type="int" name="NTAUPAR">    -1</i>
   <i type="int" name="NOMEGAPAR">    -1</i>
   <i name="DAMP_NEWTON">      0.80000001</i>
   <i name="LAMBDA">      1.00000000</i>
  </separator>
  <separator name="External order field" >
   <i name="OFIELD_KAPPA">      0.00000000</i>
   <v name="OFIELD_K">      0.00000000      0.00000000      0.00000000</v>
   <i name="OFIELD_Q6_NEAR">      0.00000000</i>
   <i name="OFIELD_Q6_FAR">      0.00000000</i>
   <i name="OFIELD_A">      0.00000000</i>
  </separator>
  <separator name="optional k-points parameters" >
   <i type="int" name="KPOINTS_OPT_MODE">     1</i>
   <i type="logical" name="LKPOINTS_OPT"> F  </i>
  </separator>
 </parameters>
 <atominfo>
  <atoms>      90 </atoms>
  <types>       3 </types>
  <array name="atoms" >
   <dimension dim="1">ion</dimension>
   <field type="string">element</field>
   <field type="int">atomtype</field>
   <set>
    <rc><c>Ir</c><c>   1</c></rc>
    <rc><c>Ir</c><c>   1</c></rc>
    <rc><c>Ir</c><c>   1</c></rc>
    <rc><c>Ir</c><c>   1</c></rc>
    <rc><c>Ir</c><c>   1</c></rc>
    <rc><c>Ir</c><c>   1</c></rc>
    <rc><c>Ce</c><c>   2</c></rc>
    <rc><c>Ce</c><c>   2</c></rc>
    <rc><c>Ce</c><c>   2</c></rc>
    <rc><c>Ce</c><c>   2</c></rc>
    <rc><c>Ce</c><c>   2</c></rc>
    <rc><c>Ce</c><c>   2</c></rc>
    <rc><c>Ce</c><c>   2</c></rc>
    <rc><c>Ce</c><c>   2</c></rc>
    <rc><c>Ce</c><c>   2</c></rc>
    <rc><c>Ce</c><c>   2</c></rc>
    <rc><c>Ce</c><c>   2</c></rc>
    <rc><c>Ce</c><c>   2</c></rc>
    <rc><c>Ce</c><c>   2</c></rc>
    <rc><c>Ce</c><c>   2</c></rc>
    <rc><c>Ce</c><c>   2</c></rc>
    <rc><c>Ce</c><c>   2</c></rc>
    <rc><c>Ce</c><c>   2</c></rc>
    <rc><c>Ce</c><c>   2</c></rc>
    <rc><c>Ce</c><c>   2</c></rc>
    <rc><c>Ce</c><c>   2</c></rc>
    <rc><c>Ce</c><c>   2</c></rc>
    <rc><c>O </c><c>   3</c></rc>
    <rc><c>O </c><c>   3</c></rc>
    <rc><c>O </c><c>   3</c></rc>
    <rc><c>O </c><c>   3</c></rc>
    <rc><c>O </c><c>   3</c></rc>
    <rc><c>O </c><c>   3</c></rc>
    <rc><c>O </c><c>   3</c></rc>
    <rc><c>O </c><c>   3</c></rc>
    <rc><c>O </c><c>   3</c></rc>
    <rc><c>O </c><c>   3</c></rc>
    <rc><c>O </c><c>   3</c></rc>
    <rc><c>O </c><c>   3</c></rc>
    <rc><c>O </c><c>   3</c></rc>
    <rc><c>O </c><c>   3</c></rc>
    <rc><c>O </c><c>   3</c></rc>
    <rc><c>O </c><c>   3</c></rc>
    <rc><c>O </c><c>   3</c></rc>
    <rc><c>O </c><c>   3</c></rc>
    <rc><c>O </c><c>   3</c></rc>
    <rc><c>O </c><c>   3</c></rc>
    <rc><c>O </c><c>   3</c></rc>
    <rc><c>O </c><c>   3</c></rc>
    <rc><c>O </c><c>   3</c></rc>
    <rc><c>O </c><c>   3</c></rc>
    <rc><c>O </c><c>   3</c></rc>
    <rc><c>O </c><c>   3</c></rc>
    <rc><c>O </c><c>   3</c></rc>
    <rc><c>O </c><c>   3</c></rc>
    <rc><c>O </c><c>   3</c></rc>
    <rc><c>O </c><c>   3</c></rc>
    <rc><c>O </c><c>   3</c></rc>
    <rc><c>O </c><c>   3</c></rc>
    <rc><c>O </c><c>   3</c></rc>
    <rc><c>O </c><c>   3</c></rc>
    <rc><c>O </c><c>   3</c></rc>
    <rc><c>O </c><c>   3</c></rc>
    <rc><c>O </c><c>   3</c></rc>
    <rc><c>O </c><c>   3</c></rc>
    <rc><c>O </c><c>   3</c></rc>
    <rc><c>O </c><c>   3</c></rc>
    <rc><c>O </c><c>   3</c></rc>
    <rc><c>O </c><c>   3</c></rc>
    <rc><c>O </c><c>   3</c></rc>
    <rc><c>O </c><c>   3</c></rc>
    <rc><c>O </c><c>   3</c></rc>
    <rc><c>O </c><c>   3</c></rc>
    <rc><c>O </c><c>   3</c></rc>
    <rc><c>O </c><c>   3</c></rc>
    <rc><c>O </c><c>   3</c></rc>
    <rc><c>O </c><c>   3</c></rc>
    <rc><c>O </c><c>   3</c></rc>
    <rc><c>O </c><c>   3</c></rc>
    <rc><c>O </c><c>   3</c></rc>
    <rc><c>O </c><c>   3</c></rc>
    <rc><c>O </c><c>   3</c></rc>
    <rc><c>O </c><c>   3</c></rc>
    <rc><c>O </c><c>   3</c></rc>
    <rc><c>O </c><c>   3</c></rc>
    <rc><c>O </c><c>   3</c></rc>
    <rc><c>O </c><c>   3</c></rc>
    <rc><c>O </c><c>   3</c></rc>
    <rc><c>O </c><c>   3</c></rc>
    <rc><c>O </c><c>   3</c></rc>
   </set>
  </array>
  <array name="atomtypes" >
   <dimension dim="1">type</dimension>
   <field type="int">atomspertype</field>
   <field type="string">element</field>
   <field>mass</field>
   <field>valence</field>
   <field type="string">pseudopotential</field>
   <set>
    <rc><c>   6</c><c>Ir</c><c>    192.22000000</c><c>      9.00000000</c><c>  PAW_PBE Ir 06Sep2000                  </c></rc>
    <rc><c>  21</c><c>Ce</c><c>    140.11500000</c><c>     12.00000000</c><c>  PAW_PBE Ce 23Dec2003                  </c></rc>
    <rc><c>  63</c><c>O </c><c>     16.00000000</c><c>      6.00000000</c><c>  PAW_PBE O 08Apr2002                   </c></rc>
   </set>
  </array>
 </atominfo>
 <structure name="initialpos" >
  <crystal>
   <varray name="basis" >
    <v>      11.59820000       0.00000000       0.00000000 </v>
    <v>      -5.79910000      10.04433584       0.00000000 </v>
    <v>       0.00000000       0.00000000      21.04820000 </v>
   </varray>
   <i name="volume">   2452.03565189 </i>
   <varray name="rec_basis" >
    <v>       0.08622028       0.04977930       0.00000000 </v>
    <v>       0.00000000       0.09955860       0.00000000 </v>
    <v>       0.00000000       0.00000000       0.04751000 </v>
   </varray>
  </crystal>
  <varray name="positions" >
   <v>       0.00000000       0.00000000       0.45993000 </v>
   <v>       0.66667000       0.00000000       0.45993000 </v>
   <v>       0.00000000       0.33333000       0.45993000 </v>
   <v>       0.33333000       0.33333000       0.45993000 </v>
   <v>       0.33333000       0.66667000       0.45993000 </v>
   <v>       0.66667000       0.66667000       0.45993000 </v>
   <v>       0.22222000       0.11111000       0.30996000 </v>
   <v>       0.11111000       0.22222000       0.15999000 </v>
   <v>       0.33333000       0.00000000       0.45993000 </v>
   <v>       0.55556000       0.11111000       0.30996000 </v>
   <v>       0.44444000       0.22222000       0.15999000 </v>
   <v>       0.88889000       0.11111000       0.30996000 </v>
   <v>       0.77778000       0.22222000       0.15999000 </v>
   <v>       0.22222000       0.44444000       0.30996000 </v>
   <v>       0.11111000       0.55556000       0.15999000 </v>
   <v>       0.55556000       0.44444000       0.30996000 </v>
   <v>       0.44444000       0.55556000       0.15999000 </v>
   <v>       0.66667000       0.33333000       0.45993000 </v>
   <v>       0.88889000       0.44444000       0.30996000 </v>
   <v>       0.77778000       0.55556000       0.15999000 </v>
   <v>       0.00000000       0.66667000       0.45993000 </v>
   <v>       0.22222000       0.77778000       0.30996000 </v>
   <v>       0.11111000       0.88889000       0.15999000 </v>
   <v>       0.55556000       0.77778000       0.30996000 </v>
   <v>       0.44444000       0.88889000       0.15999000 </v>
   <v>       0.88889000       0.77778000       0.30996000 </v>
   <v>       0.77778000       0.88889000       0.15999000 </v>
   <v>       0.00000000       0.00000000       0.12250000 </v>
   <v>       0.11111000       0.22222000       0.27247000 </v>
   <v>       0.22222000       0.11111000       0.42244000 </v>
   <v>       0.11111000       0.22222000       0.04751000 </v>
   <v>       0.11111000       0.22222000       0.49742000 </v>
   <v>       0.00000000       0.00000000       0.34745000 </v>
   <v>       0.22222000       0.11111000       0.19748000 </v>
   <v>       0.33333000       0.00000000       0.12250000 </v>
   <v>       0.44444000       0.22222000       0.27247000 </v>
   <v>       0.55556000       0.11111000       0.42244000 </v>
   <v>       0.44444000       0.22222000       0.04751000 </v>
   <v>       0.44444000       0.22222000       0.49742000 </v>
   <v>       0.33333000       0.00000000       0.34745000 </v>
   <v>       0.55556000       0.11111000       0.19748000 </v>
   <v>       0.66667000       0.00000000       0.12250000 </v>
   <v>       0.77778000       0.22222000       0.27247000 </v>
   <v>       0.88889000       0.11111000       0.42244000 </v>
   <v>       0.77778000       0.22222000       0.04751000 </v>
   <v>       0.77778000       0.22222000       0.49742000 </v>
   <v>       0.66667000       0.00000000       0.34745000 </v>
   <v>       0.88889000       0.11111000       0.19748000 </v>
   <v>       0.00000000       0.33333000       0.12250000 </v>
   <v>       0.11111000       0.55556000       0.27247000 </v>
   <v>       0.22222000       0.44444000       0.42244000 </v>
   <v>       0.11111000       0.55556000       0.04751000 </v>
   <v>       0.11111000       0.55556000       0.49742000 </v>
   <v>       0.00000000       0.33333000       0.34745000 </v>
   <v>       0.22222000       0.44444000       0.19748000 </v>
   <v>       0.33333000       0.33333000       0.12250000 </v>
   <v>       0.44444000       0.55556000       0.27247000 </v>
   <v>       0.55556000       0.44444000       0.42244000 </v>
   <v>       0.44444000       0.55556000       0.04751000 </v>
   <v>       0.44444000       0.55556000       0.49742000 </v>
   <v>       0.33333000       0.33333000       0.34745000 </v>
   <v>       0.55556000       0.44444000       0.19748000 </v>
   <v>       0.66667000       0.33333000       0.12250000 </v>
   <v>       0.77778000       0.55556000       0.27247000 </v>
   <v>       0.88889000       0.44444000       0.42244000 </v>
   <v>       0.77778000       0.55556000       0.04751000 </v>
   <v>       0.77778000       0.55556000       0.49742000 </v>
   <v>       0.66667000       0.33333000       0.34745000 </v>
   <v>       0.88889000       0.44444000       0.19748000 </v>
   <v>       0.00000000       0.66667000       0.12250000 </v>
   <v>       0.11111000       0.88889000       0.27247000 </v>
   <v>       0.22222000       0.77778000       0.42244000 </v>
   <v>       0.11111000       0.88889000       0.04751000 </v>
   <v>       0.11111000       0.88889000       0.49742000 </v>
   <v>       0.00000000       0.66667000       0.34745000 </v>
   <v>       0.22222000       0.77778000       0.19748000 </v>
   <v>       0.33333000       0.66667000       0.12250000 </v>
   <v>       0.44444000       0.88889000       0.27247000 </v>
   <v>       0.55556000       0.77778000       0.42244000 </v>
   <v>       0.44444000       0.88889000       0.04751000 </v>
   <v>       0.44444000       0.88889000       0.49742000 </v>
   <v>       0.33333000       0.66667000       0.34745000 </v>
   <v>       0.55556000       0.77778000       0.19748000 </v>
   <v>       0.66667000       0.66667000       0.12250000 </v>
   <v>       0.77778000       0.88889000       0.27247000 </v>
   <v>       0.88889000       0.77778000       0.42244000 </v>
   <v>       0.77778000       0.88889000       0.04751000 </v>
   <v>       0.77778000       0.88889000       0.49742000 </v>
   <v>       0.66667000       0.66667000       0.34745000 </v>
   <v>       0.88889000       0.77778000       0.19748000 </v>
  </varray>
  <varray name="selective"  type="logical" >
   <v type="logical" >  T  T  T </v>
   <v type="logical" >  T  T  T </v>
   <v type="logical" >  T  T  T </v>
   <v type="logical" >  T  T  T </v>
   <v type="logical" >  T  T  T </v>
   <v type="logical" >  T  T  T </v>
   <v type="logical" >  T  T  T </v>
   <v type="logical" >  F  F  F </v>
   <v type="logical" >  T  T  T </v>
   <v type="logical" >  T  T  T </v>
   <v type="logical" >  F  F  F </v>
   <v type="logical" >  T  T  T </v>
   <v type="logical" >  F  F  F </v>
   <v type="logical" >  T  T  T </v>
   <v type="logical" >  F  F  F </v>
   <v type="logical" >  T  T  T </v>
   <v type="logical" >  F  F  F </v>
   <v type="logical" >  T  T  T </v>
   <v type="logical" >  T  T  T </v>
   <v type="logical" >  F  F  F </v>
   <v type="logical" >  T  T  T </v>
   <v type="logical" >  T  T  T </v>
   <v type="logical" >  F  F  F </v>
   <v type="logical" >  T  T  T </v>
   <v type="logical" >  F  F  F </v>
   <v type="logical" >  T  T  T </v>
   <v type="logical" >  F  F  F </v>
   <v type="logical" >  F  F  F </v>
   <v type="logical" >  T  T  T </v>
   <v type="logical" >  T  T  T </v>
   <v type="logical" >  F  F  F </v>
   <v type="logical" >  T  T  T </v>
   <v type="logical" >  T  T  T </v>
   <v type="logical" >  F  F  F </v>
   <v type="logical" >  F  F  F </v>
   <v type="logical" >  T  T  T </v>
   <v type="logical" >  T  T  T </v>
   <v type="logical" >  F  F  F </v>
   <v type="logical" >  T  T  T </v>
   <v type="logical" >  T  T  T </v>
   <v type="logical" >  F  F  F </v>
   <v type="logical" >  F  F  F </v>
   <v type="logical" >  T  T  T </v>
   <v type="logical" >  T  T  T </v>
   <v type="logical" >  F  F  F </v>
   <v type="logical" >  T  T  T </v>
   <v type="logical" >  T  T  T </v>
   <v type="logical" >  F  F  F </v>
   <v type="logical" >  F  F  F </v>
   <v type="logical" >  T  T  T </v>
   <v type="logical" >  T  T  T </v>
   <v type="logical" >  F  F  F </v>
   <v type="logical" >  T  T  T </v>
   <v type="logical" >  T  T  T </v>
   <v type="logical" >  F  F  F </v>
   <v type="logical" >  F  F  F </v>
   <v type="logical" >  T  T  T </v>
   <v type="logical" >  T  T  T </v>
   <v type="logical" >  F  F  F </v>
   <v type="logical" >  T  T  T </v>
   <v type="logical" >  T  T  T </v>
   <v type="logical" >  F  F  F </v>
   <v type="logical" >  F  F  F </v>
   <v type="logical" >  T  T  T </v>
   <v type="logical" >  T  T  T </v>
   <v type="logical" >  F  F  F </v>
   <v type="logical" >  T  T  T </v>
   <v type="logical" >  T  T  T </v>
   <v type="logical" >  F  F  F </v>
   <v type="logical" >  F  F  F </v>
   <v type="logical" >  T  T  T </v>
   <v type="logical" >  T  T  T </v>
   <v type="logical" >  F  F  F </v>
   <v type="logical" >  T  T  T </v>
   <v type="logical" >  T  T  T </v>
   <v type="logical" >  F  F  F </v>
   <v type="logical" >  F  F  F </v>
   <v type="logical" >  T  T  T </v>
   <v type="logical" >  T  T  T </v>
   <v type="logical" >  F  F  F </v>
   <v type="logical" >  T  T  T </v>
   <v type="logical" >  T  T  T </v>
   <v type="logical" >  F  F  F </v>
   <v type="logical" >  F  F  F </v>
   <v type="logical" >  T  T  T </v>
   <v type="logical" >  T  T  T </v>
   <v type="logical" >  F  F  F </v>
   <v type="logical" >  T  T  T </v>
   <v type="logical" >  T  T  T </v>
   <v type="logical" >  F  F  F </v>
  </varray>
  <nose>
   <v>      -3.00000000       0.00000000       0.00010000       0.00010000 </v>
  </nose>
 </structure>
 <calculation>
  <scstep>
   <time name="dav">   16.54   16.64</time>
   <time name="total">   18.03   18.14</time>
   <energy>
    <i name="alphaZ">   1646.47971768 </i>
    <i name="ewald"> 127449.20811872 </i>
    <i name="hartreedc">-176477.99078500 </i>
    <i name="XCdc">   1735.31617360 </i>
    <i name="pawpsdc">  43004.07676644 </i>
    <i name="pawaedc"> -42332.39009753 </i>
    <i name="eentropy">     -0.03305262 </i>
    <i name="bandstr">   2591.74585568 </i>
    <i name="atom">  52924.17385108 </i>
    <i name="e_fr_energy">  10540.58654805 </i>
    <i name="e_wo_entrp">  10540.61960067 </i>
    <i name="e_0_energy">  10540.60307436 </i>
   </energy>
  </scstep>
  <scstep>
   <time name="dav">   17.89   17.90</time>
   <time name="total">   17.89   17.90</time>
   <energy>
    <i name="e_fr_energy">   2727.32572063 </i>
    <i name="e_wo_entrp">   2727.48882984 </i>
    <i name="e_0_energy">   2727.40727524 </i>
   </energy>
  </scstep>
  <scstep>
   <time name="dav">   20.74   20.76</time>
   <time name="total">   20.74   20.76</time>
   <energy>
    <i name="e_fr_energy">   -412.86884940 </i>
    <i name="e_wo_entrp">   -412.84592338 </i>
    <i name="e_0_energy">   -412.85738639 </i>
   </energy>
  </scstep>
  <scstep>
   <time name="dav">   22.47   22.48</time>
   <time name="total">   22.47   22.48</time>
   <energy>
    <i name="e_fr_energy">   -826.23737885 </i>
    <i name="e_wo_entrp">   -826.23459330 </i>
    <i name="e_0_energy">   -826.23598608 </i>
   </energy>
  </scstep>
  <scstep>
   <time name="dav">   26.01   26.02</time>
   <time name="total">   27.41   27.43</time>
   <energy>
    <i name="e_fr_energy">   -846.10205423 </i>
    <i name="e_wo_entrp">   -846.10197375 </i>
    <i name="e_0_energy">   -846.10201399 </i>
   </energy>
  </scstep>
  <scstep>
   <time name="dav">   25.42   25.43</time>
   <time name="total">   28.17   28.19</time>
   <energy>
    <i name="e_fr_energy">  -1470.70889888 </i>
    <i name="e_wo_entrp">  -1470.53121460 </i>
    <i name="e_0_energy">  -1470.62005674 </i>
   </energy>
  </scstep>
  <scstep>
   <time name="dav">   24.22   24.23</time>
   <time name="total">   27.01   27.02</time>
   <energy>
    <i name="e_fr_energy">   -812.40030167 </i>
    <i name="e_wo_entrp">   -812.17605842 </i>
    <i name="e_0_energy">   -812.28818004 </i>
   </energy>
  </scstep>
  <scstep>
   <time name="dav">   24.65   24.66</time>
   <time name="total">   27.43   27.44</time>
   <energy>
    <i name="e_fr_energy">   -726.31189290 </i>
    <i name="e_wo_entrp">   -726.03220385 </i>
    <i name="e_0_energy">   -726.17204838 </i>
   </energy>
  </scstep>
  <scstep>
   <time name="dav">   25.87   25.88</time>
   <time name="total">   28.67   28.68</time>
   <energy>
    <i name="e_fr_energy">   -967.40587621 </i>
    <i name="e_wo_entrp">   -967.30895013 </i>
    <i name="e_0_energy">   -967.35741317 </i>
   </energy>
  </scstep>
  <scstep>
   <time name="dav">   26.03   26.04</time>
   <time name="total">   28.74   28.76</time>
   <energy>
    <i name="e_fr_energy">  -1070.29732938 </i>
    <i name="e_wo_entrp">  -1070.20225681 </i>
    <i name="e_0_energy">  -1070.24979310 </i>
   </energy>
  </scstep>
  <scstep>
   <time name="dav">   24.88   24.89</time>
   <time name="total">   27.65   27.66</time>
   <energy>
    <i name="e_fr_energy">   -917.58098881 </i>
    <i name="e_wo_entrp">   -917.50064120 </i>
    <i name="e_0_energy">   -917.54081500 </i>
   </energy>
  </scstep>
  <scstep>
   <time name="dav">   23.07   23.08</time>
   <time name="total">   25.83   25.84</time>
   <energy>
    <i name="e_fr_energy">   -765.35147992 </i>
    <i name="e_wo_entrp">   -765.33396492 </i>
    <i name="e_0_energy">   -765.34272242 </i>
   </energy>
  </scstep>
  <scstep>
   <time name="dav">   24.02   24.03</time>
   <time name="total">   26.77   26.79</time>
   <energy>
    <i name="e_fr_energy">   -710.26535236 </i>
    <i name="e_wo_entrp">   -710.18088448 </i>
    <i name="e_0_energy">   -710.22311842 </i>
   </energy>
  </scstep>
  <scstep>
   <time name="dav">   25.62   25.63</time>
   <time name="total">   28.38   28.40</time>
   <energy>
    <i name="e_fr_energy">   -681.43455637 </i>
    <i name="e_wo_entrp">   -681.40837728 </i>
    <i name="e_0_energy">   -681.42146683 </i>
   </energy>
  </scstep>
  <scstep>
   <time name="dav">   24.03   24.05</time>
   <time name="total">   26.80   26.81</time>
   <energy>
    <i name="e_fr_energy">   -605.36426630 </i>
    <i name="e_wo_entrp">   -605.25640255 </i>
    <i name="e_0_energy">   -605.31033443 </i>
   </energy>
  </scstep>
  <scstep>
   <time name="dav">   23.60   23.62</time>
   <time name="total">   26.36   26.38</time>
   <energy>
    <i name="e_fr_energy">   -606.05132782 </i>
    <i name="e_wo_entrp">   -605.92448284 </i>
    <i name="e_0_energy">   -605.98790533 </i>
   </energy>
  </scstep>
  <scstep>
   <time name="dav">   24.66   24.67</time>
   <time name="total">   27.39   27.41</time>
   <energy>
    <i name="e_fr_energy">   -612.81972805 </i>
    <i name="e_wo_entrp">   -612.75861213 </i>
    <i name="e_0_energy">   -612.78917009 </i>
   </energy>
  </scstep>
  <scstep>
   <time name="dav">   25.80   25.81</time>
   <time name="total">   28.56   28.57</time>
   <energy>
    <i name="e_fr_energy">   -606.20009959 </i>
    <i name="e_wo_entrp">   -606.07831449 </i>
    <i name="e_0_energy">   -606.13920704 </i>
   </energy>
  </scstep>
  <scstep>
   <time name="dav">   23.32   23.33</time>
   <time name="total">   26.07   26.09</time>
   <energy>
    <i name="e_fr_energy">   -604.43772125 </i>
    <i name="e_wo_entrp">   -604.36109672 </i>
    <i name="e_0_energy">   -604.39940898 </i>
   </energy>
  </scstep>
  <scstep>
   <time name="dav">   23.50   23.51</time>
   <time name="total">   26.23   26.25</time>
   <energy>
    <i name="e_fr_energy">   -606.02853791 </i>
    <i name="e_wo_entrp">   -605.96486372 </i>
    <i name="e_0_energy">   -605.99670082 </i>
   </energy>
  </scstep>
  <scstep>
   <time name="dav">   23.07   23.08</time>
   <time name="total">   25.79   25.80</time>
   <energy>
    <i name="e_fr_energy">   -605.85306021 </i>
    <i name="e_wo_entrp">   -605.76159928 </i>
    <i name="e_0_energy">   -605.80732974 </i>
   </energy>
  </scstep>
  <scstep>
   <time name="dav">   21.62   21.64</time>
   <time name="total">   24.36   24.37</time>
   <energy>
    <i name="e_fr_energy">   -605.96244330 </i>
    <i name="e_wo_entrp">   -605.87733040 </i>
    <i name="e_0_energy">   -605.91988685 </i>
   </energy>
  </scstep>
  <scstep>
   <time name="dav">   22.88   22.89</time>
   <time name="total">   25.61   25.62</time>
   <energy>
    <i name="e_fr_energy">   -605.98432885 </i>
    <i name="e_wo_entrp">   -605.89641343 </i>
    <i name="e_0_energy">   -605.94037114 </i>
   </energy>
  </scstep>
  <scstep>
   <time name="dav">   21.96   21.97</time>
   <time name="total">   24.71   24.72</time>
   <energy>
    <i name="e_fr_energy">   -606.49881767 </i>
    <i name="e_wo_entrp">   -606.39131650 </i>
    <i name="e_0_energy">   -606.44506708 </i>
   </energy>
  </scstep>
  <scstep>
   <time name="dav">   21.49   21.50</time>
   <time name="total">   24.24   24.26</time>
   <energy>
    <i name="e_fr_energy">   -607.68852468 </i>
    <i name="e_wo_entrp">   -607.63895227 </i>
    <i name="e_0_energy">   -607.66373847 </i>
   </energy>
  </scstep>
  <scstep>
   <time name="dav">   20.78   20.79</time>
   <time name="total">   23.52   23.54</time>
   <energy>
    <i name="e_fr_energy">   -608.92961225 </i>
    <i name="e_wo_entrp">   -608.87332251 </i>
    <i name="e_0_energy">   -608.90146738 </i>
   </energy>
  </scstep>
  <scstep>
   <time name="dav">   22.56   22.57</time>
   <time name="total">   25.31   25.33</time>
   <energy>
    <i name="e_fr_energy">   -611.15654266 </i>
    <i name="e_wo_entrp">   -611.09694384 </i>
    <i name="e_0_energy">   -611.12674325 </i>
   </energy>
  </scstep>
  <scstep>
   <time name="dav">   20.80   20.81</time>
   <time name="total">   23.52   23.53</time>
   <energy>
    <i name="e_fr_energy">   -611.24886545 </i>
    <i name="e_wo_entrp">   -611.19334391 </i>
    <i name="e_0_energy">   -611.22110468 </i>
   </energy>
  </scstep>
  <scstep>
   <time name="dav">   22.57   22.59</time>
   <time name="total">   25.31   25.33</time>
   <energy>
    <i name="e_fr_energy">   -610.96816977 </i>
    <i name="e_wo_entrp">   -610.90389072 </i>
    <i name="e_0_energy">   -610.93603024 </i>
   </energy>
  </scstep>
  <scstep>
   <time name="dav">   21.23   21.24</time>
   <time name="total">   23.96   23.97</time>
   <energy>
    <i name="e_fr_energy">   -611.04272832 </i>
    <i name="e_wo_entrp">   -610.97847119 </i>
    <i name="e_0_energy">   -611.01059976 </i>
   </energy>
  </scstep>
  <scstep>
   <time name="dav">   20.42   20.44</time>
   <time name="total">   23.15   23.17</time>
   <energy>
    <i name="e_fr_energy">   -611.74850897 </i>
    <i name="e_wo_entrp">   -611.69062686 </i>
    <i name="e_0_energy">   -611.71956791 </i>
   </energy>
  </scstep>
  <scstep>
   <time name="dav">   21.75   21.77</time>
   <time name="total">   24.51   24.52</time>
   <energy>
    <i name="e_fr_energy">   -612.19739161 </i>
    <i name="e_wo_entrp">   -612.13845136 </i>
    <i name="e_0_energy">   -612.16792149 </i>
   </energy>
  </scstep>
  <scstep>
   <time name="dav">   20.92   20.93</time>
   <time name="total">   23.70   23.71</time>
   <energy>
    <i name="e_fr_energy">   -615.31352866 </i>
    <i name="e_wo_entrp">   -615.25433435 </i>
    <i name="e_0_energy">   -615.28393151 </i>
   </energy>
  </scstep>
  <scstep>
   <time name="dav">   20.85   20.86</time>
   <time name="total">   23.60   23.61</time>
   <energy>
    <i name="e_fr_energy">   -615.71615737 </i>
    <i name="e_wo_entrp">   -615.68209645 </i>
    <i name="e_0_energy">   -615.69912691 </i>
   </energy>
  </scstep>
  <scstep>
   <time name="dav">   22.31   22.32</time>
   <time name="total">   25.10   25.11</time>
   <energy>
    <i name="e_fr_energy">   -618.51208259 </i>
    <i name="e_wo_entrp">   -618.48133977 </i>
    <i name="e_0_energy">   -618.49671118 </i>
   </energy>
  </scstep>
  <scstep>
   <time name="dav">   23.59   23.61</time>
   <time name="total">   26.36   26.37</time>
   <energy>
    <i name="e_fr_energy">   -618.75437739 </i>
    <i name="e_wo_entrp">   -618.72569510 </i>
    <i name="e_0_energy">   -618.74003625 </i>
   </energy>
  </scstep>
  <scstep>
   <time name="dav">   23.03   23.04</time>
   <time name="total">   25.74   25.75</time>
   <energy>
    <i name="e_fr_energy">   -618.65404593 </i>
    <i name="e_wo_entrp">   -618.61616521 </i>
    <i name="e_0_energy">   -618.63510557 </i>
   </energy>
  </scstep>
  <scstep>
   <time name="dav">   23.63   23.64</time>
   <time name="total">   26.34   26.36</time>
   <energy>
    <i name="e_fr_energy">   -619.08505058 </i>
    <i name="e_wo_entrp">   -619.04353926 </i>
    <i name="e_0_energy">   -619.06429492 </i>
   </energy>
  </scstep>
  <scstep>
   <time name="dav">   21.24   21.26</time>
   <time name="total">   23.98   23.99</time>
   <energy>
    <i name="e_fr_energy">   -618.96714926 </i>
    <i name="e_wo_entrp">   -618.92871320 </i>
    <i name="e_0_energy">   -618.94793123 </i>
   </energy>
  </scstep>
  <scstep>
   <time name="dav">   25.14   25.16</time>
   <time name="total">   27.90   27.91</time>
   <energy>
    <i name="e_fr_energy">   -618.92211161 </i>
    <i name="e_wo_entrp">   -618.88505525 </i>
    <i name="e_0_energy">   -618.90358343 </i>
   </energy>
  </scstep>
  <scstep>
   <time name="dav">   21.03   21.04</time>
   <time name="total">   23.74   23.75</time>
   <energy>
    <i name="e_fr_energy">   -618.99812448 </i>
    <i name="e_wo_entrp">   -618.95991949 </i>
    <i name="e_0_energy">   -618.97902198 </i>
   </energy>
  </scstep>
  <scstep>
   <time name="dav">   21.82   21.83</time>
   <time name="total">   24.53   24.54</time>
   <energy>
    <i name="e_fr_energy">   -619.50832558 </i>
    <i name="e_wo_entrp">   -619.45903199 </i>
    <i name="e_0_energy">   -619.48367879 </i>
   </energy>
  </scstep>
  <scstep>
   <time name="dav">   20.40   20.41</time>
   <time name="total">   23.12   23.14</time>
   <energy>
    <i name="e_fr_energy">   -619.70674003 </i>
    <i name="e_wo_entrp">   -619.67378527 </i>
    <i name="e_0_energy">   -619.69026265 </i>
   </energy>
  </scstep>
  <scstep>
   <time name="dav">   23.73   23.75</time>
   <time name="total">   26.46   26.47</time>
   <energy>
    <i name="e_fr_energy">   -619.65380739 </i>
    <i name="e_wo_entrp">   -619.62630002 </i>
    <i name="e_0_energy">   -619.64005370 </i>
   </energy>
  </scstep>
  <scstep>
   <time name="dav">   22.40   22.41</time>
   <time name="total">   25.11   25.12</time>
   <energy>
    <i name="e_fr_energy">   -618.95555550 </i>
    <i name="e_wo_entrp">   -618.92214624 </i>
    <i name="e_0_energy">   -618.93885087 </i>
   </energy>
  </scstep>
  <scstep>
   <time name="dav">   23.44   23.45</time>
   <time name="total">   26.19   26.21</time>
   <energy>
    <i name="e_fr_energy">   -618.85446048 </i>
    <i name="e_wo_entrp">   -618.81075677 </i>
    <i name="e_0_energy">   -618.83260862 </i>
   </energy>
  </scstep>
  <scstep>
   <time name="dav">   20.98   20.99</time>
   <time name="total">   23.69   23.70</time>
   <energy>
    <i name="e_fr_energy">   -618.78127042 </i>
    <i name="e_wo_entrp">   -618.73980994 </i>
    <i name="e_0_energy">   -618.76054018 </i>
   </energy>
  </scstep>
  <scstep>
   <time name="dav">   24.63   24.64</time>
   <time name="total">   27.33   27.34</time>
   <energy>
    <i name="e_fr_energy">   -619.00229946 </i>
    <i name="e_wo_entrp">   -618.96744415 </i>
    <i name="e_0_energy">   -618.98487180 </i>
   </energy>
  </scstep>
  <scstep>
   <time name="dav">   21.99   22.00</time>
   <time name="total">   24.72   24.73</time>
   <energy>
    <i name="e_fr_energy">   -618.75738243 </i>
    <i name="e_wo_entrp">   -618.71784593 </i>
    <i name="e_0_energy">   -618.73761418 </i>
   </energy>
  </scstep>
  <scstep>
   <time name="dav">   21.95   21.96</time>
   <time name="total">   24.65   24.66</time>
   <energy>
    <i name="e_fr_energy">   -618.46982980 </i>
    <i name="e_wo_entrp">   -618.43126515 </i>
    <i name="e_0_energy">   -618.45054747 </i>
   </energy>
  </scstep>
  <scstep>
   <time name="dav">   24.78   24.79</time>
   <time name="total">   27.49   27.51</time>
   <energy>
    <i name="e_fr_energy">   -616.68020428 </i>
    <i name="e_wo_entrp">   -616.64376060 </i>
    <i name="e_0_energy">   -616.66198244 </i>
   </energy>
  </scstep>
  <scstep>
   <time name="dav">   21.54   21.55</time>
   <time name="total">   24.24   24.26</time>
   <energy>
    <i name="e_fr_energy">   -616.59472772 </i>
    <i name="e_wo_entrp">   -616.54735083 </i>
    <i name="e_0_energy">   -616.57103928 </i>
   </energy>
  </scstep>
  <scstep>
   <time name="dav">   23.14   23.15</time>
   <time name="total">   25.86   25.88</time>
   <energy>
    <i name="e_fr_energy">   -615.95412004 </i>
    <i name="e_wo_entrp">   -615.90231950 </i>
    <i name="e_0_energy">   -615.92821977 </i>
   </energy>
  </scstep>
  <scstep>
   <time name="dav">   22.19   22.20</time>
   <time name="total">   24.92   24.93</time>
   <energy>
    <i name="e_fr_energy">   -615.51481580 </i>
    <i name="e_wo_entrp">   -615.45839131 </i>
    <i name="e_0_energy">   -615.48660356 </i>
   </energy>
  </scstep>
  <scstep>
   <time name="dav">   22.27   22.28</time>
   <time name="total">   24.97   24.98</time>
   <energy>
    <i name="e_fr_energy">   -615.08198052 </i>
    <i name="e_wo_entrp">   -615.02863116 </i>
    <i name="e_0_energy">   -615.05530584 </i>
   </energy>
  </scstep>
  <scstep>
   <time name="dav">   22.80   22.81</time>
   <time name="total">   25.54   25.56</time>
   <energy>
    <i name="e_fr_energy">   -612.61799988 </i>
    <i name="e_wo_entrp">   -612.59283349 </i>
    <i name="e_0_energy">   -612.60541668 </i>
   </energy>
  </scstep>
  <scstep>
   <time name="dav">   22.66   22.67</time>
   <time name="total">   25.40   25.41</time>
   <energy>
    <i name="e_fr_energy">   -613.59580504 </i>
    <i name="e_wo_entrp">   -613.58791779 </i>
    <i name="e_0_energy">   -613.59186141 </i>
   </energy>
  </scstep>
  <scstep>
   <time name="dav">   22.75   22.77</time>
   <time name="total">   25.48   25.49</time>
   <energy>
    <i name="e_fr_energy">   -613.58531175 </i>
    <i name="e_wo_entrp">   -613.56881284 </i>
    <i name="e_0_energy">   -613.57706230 </i>
   </energy>
  </scstep>
  <scstep>
   <time name="dav">   22.56   22.57</time>
   <time name="total">   25.28   25.30</time>
   <energy>
    <i name="e_fr_energy">   -612.78457021 </i>
    <i name="e_wo_entrp">   -612.77097867 </i>
    <i name="e_0_energy">   -612.77777444 </i>
   </energy>
  </scstep>
  <scstep>
   <time name="dav">   22.55   22.56</time>
   <time name="total">   25.26   25.27</time>
   <energy>
    <i name="e_fr_energy">   -612.44116693 </i>
    <i name="e_wo_entrp">   -612.39206474 </i>
    <i name="e_0_energy">   -612.41661584 </i>
   </energy>
  </scstep>
  <scstep>
   <time name="dav">   21.90   21.91</time>
   <time name="total">   24.62   24.63</time>
   <energy>
    <i name="e_fr_energy">   -614.15176822 </i>
    <i name="e_wo_entrp">   -614.12832297 </i>
    <i name="e_0_energy">   -614.14004559 </i>
   </energy>
  </scstep>
  <scstep>
   <time name="dav">   23.01   23.03</time>
   <time name="total">   25.72   25.74</time>
   <energy>
    <i name="e_fr_energy">   -614.24211729 </i>
    <i name="e_wo_entrp">   -614.20672449 </i>
    <i name="e_0_energy">   -614.22442089 </i>
   </energy>
  </scstep>
  <scstep>
   <time name="dav">   22.16   22.17</time>
   <time name="total">   24.88   24.89</time>
   <energy>
    <i name="e_fr_energy">   -614.46308780 </i>
    <i name="e_wo_entrp">   -614.41519963 </i>
    <i name="e_0_energy">   -614.43914372 </i>
   </energy>
  </scstep>
  <scstep>
   <time name="dav">   22.10   22.11</time>
   <time name="total">   24.78   24.79</time>
   <energy>
    <i name="e_fr_energy">   -614.34845574 </i>
    <i name="e_wo_entrp">   -614.30961221 </i>
    <i name="e_0_energy">   -614.32903398 </i>
   </energy>
  </scstep>
  <scstep>
   <time name="dav">   22.38   22.39</time>
   <time name="total">   25.10   25.12</time>
   <energy>
    <i name="e_fr_energy">   -614.68640635 </i>
    <i name="e_wo_entrp">   -614.64756626 </i>
    <i name="e_0_energy">   -614.66698630 </i>
   </energy>
  </scstep>
  <scstep>
   <time name="dav">   21.90   21.91</time>
   <time name="total">   24.62   24.63</time>
   <energy>
    <i name="e_fr_energy">   -614.98989370 </i>
    <i name="e_wo_entrp">   -614.94148829 </i>
    <i name="e_0_energy">   -614.96569099 </i>
   </energy>
  </scstep>
  <scstep>
   <time name="dav">   22.45   22.46</time>
   <time name="total">   25.17   25.19</time>
   <energy>
    <i name="e_fr_energy">   -615.18784614 </i>
    <i name="e_wo_entrp">   -615.11995678 </i>
    <i name="e_0_energy">   -615.15390146 </i>
   </energy>
  </scstep>
  <scstep>
   <time name="dav">   22.25   22.26</time>
   <time name="total">   24.94   24.95</time>
   <energy>
    <i name="e_fr_energy">   -615.53057476 </i>
    <i name="e_wo_entrp">   -615.49656669 </i>
    <i name="e_0_energy">   -615.51357073 </i>
   </energy>
  </scstep>
  <scstep>
   <time name="dav">   22.56   22.57</time>
   <time name="total">   25.28   25.29</time>
   <energy>
    <i name="e_fr_energy">   -615.77248008 </i>
    <i name="e_wo_entrp">   -615.73434901 </i>
    <i name="e_0_energy">   -615.75341455 </i>
   </energy>
  </scstep>
  <scstep>
   <time name="dav">   21.42   21.43</time>
   <time name="total">   24.15   24.16</time>
   <energy>
    <i name="e_fr_energy">   -615.73317510 </i>
    <i name="e_wo_entrp">   -615.68653202 </i>
    <i name="e_0_energy">   -615.70985356 </i>
   </energy>
  </scstep>
  <scstep>
   <time name="dav">   22.53   22.54</time>
   <time name="total">   25.27   25.28</time>
   <energy>
    <i name="e_fr_energy">   -615.30280052 </i>
    <i name="e_wo_entrp">   -615.25710254 </i>
    <i name="e_0_energy">   -615.27995153 </i>
   </energy>
  </scstep>
  <scstep>
   <time name="dav">   21.47   21.48</time>
   <time name="total">   24.24   24.25</time>
   <energy>
    <i name="e_fr_energy">   -615.32718920 </i>
    <i name="e_wo_entrp">   -615.28256746 </i>
    <i name="e_0_energy">   -615.30487833 </i>
   </energy>
  </scstep>
  <scstep>
   <time name="dav">   22.37   22.38</time>
   <time name="total">   25.14   25.15</time>
   <energy>
    <i name="e_fr_energy">   -615.60392478 </i>
    <i name="e_wo_entrp">   -615.57420698 </i>
    <i name="e_0_energy">   -615.58906588 </i>
   </energy>
  </scstep>
  <scstep>
   <time name="dav">   22.59   22.61</time>
   <time name="total">   25.34   25.36</time>
   <energy>
    <i name="e_fr_energy">   -615.71486940 </i>
    <i name="e_wo_entrp">   -615.69186400 </i>
    <i name="e_0_energy">   -615.70336670 </i>
   </energy>
  </scstep>
  <scstep>
   <time name="dav">   21.98   22.00</time>
   <time name="total">   24.70   24.71</time>
   <energy>
    <i name="e_fr_energy">   -615.62942886 </i>
    <i name="e_wo_entrp">   -615.59886220 </i>
    <i name="e_0_energy">   -615.61414553 </i>
   </energy>
  </scstep>
  <scstep>
   <time name="dav">   22.25   22.26</time>
   <time name="total">   24.99   25.01</time>
   <energy>
    <i name="e_fr_energy">   -615.78149644 </i>
    <i name="e_wo_entrp">   -615.75181150 </i>
    <i name="e_0_energy">   -615.76665397 </i>
   </energy>
  </scstep>
  <scstep>
   <time name="dav">   22.67   22.69</time>
   <time name="total">   25.43   25.44</time>
   <energy>
    <i name="e_fr_energy">   -615.90980715 </i>
    <i name="e_wo_entrp">   -615.87765437 </i>
    <i name="e_0_energy">   -615.89373076 </i>
   </energy>
  </scstep>
  <scstep>
   <time name="dav">   21.53   21.54</time>
   <time name="total">   24.27   24.28</time>
   <energy>
    <i name="e_fr_energy">   -616.01320762 </i>
    <i name="e_wo_entrp">   -615.98424413 </i>
    <i name="e_0_energy">   -615.99872588 </i>
   </energy>
  </scstep>
  <scstep>
   <time name="dav">   21.95   21.96</time>
   <time name="total">   24.69   24.71</time>
   <energy>
    <i name="e_fr_energy">   -616.10724983 </i>
    <i name="e_wo_entrp">   -616.07802869 </i>
    <i name="e_0_energy">   -616.09263926 </i>
   </energy>
  </scstep>
  <scstep>
   <time name="dav">   21.65   21.66</time>
   <time name="total">   24.36   24.37</time>
   <energy>
    <i name="e_fr_energy">   -616.31208328 </i>
    <i name="e_wo_entrp">   -616.28238958 </i>
    <i name="e_0_energy">   -616.29723643 </i>
   </energy>
  </scstep>
  <scstep>
   <time name="dav">   22.58   22.59</time>
   <time name="total">   25.28   25.29</time>
   <energy>
    <i name="e_fr_energy">   -616.63703790 </i>
    <i name="e_wo_entrp">   -616.59035975 </i>
    <i name="e_0_energy">   -616.61369882 </i>
   </energy>
  </scstep>
  <scstep>
   <time name="dav">   20.44   20.45</time>
   <time name="total">   23.17   23.18</time>
   <energy>
    <i name="e_fr_energy">   -616.59138823 </i>
    <i name="e_wo_entrp">   -616.54461174 </i>
    <i name="e_0_energy">   -616.56799999 </i>
   </energy>
  </scstep>
  <scstep>
   <time name="dav">   22.56   22.57</time>
   <time name="total">   25.29   25.31</time>
   <energy>
    <i name="e_fr_energy">   -616.54562938 </i>
    <i name="e_wo_entrp">   -616.49916912 </i>
    <i name="e_0_energy">   -616.52239925 </i>
   </energy>
  </scstep>
  <scstep>
   <time name="dav">   20.52   20.53</time>
   <time name="total">   23.23   23.25</time>
   <energy>
    <i name="e_fr_energy">   -616.55284407 </i>
    <i name="e_wo_entrp">   -616.50660386 </i>
    <i name="e_0_energy">   -616.52972396 </i>
   </energy>
  </scstep>
  <scstep>
   <time name="dav">   23.51   23.52</time>
   <time name="total">   26.19   26.20</time>
   <energy>
    <i name="e_fr_energy">   -616.55316199 </i>
    <i name="e_wo_entrp">   -616.50697054 </i>
    <i name="e_0_energy">   -616.53006626 </i>
   </energy>
  </scstep>
  <scstep>
   <time name="dav">   21.72   21.73</time>
   <time name="total">   24.44   24.45</time>
   <energy>
    <i name="e_fr_energy">   -616.40959199 </i>
    <i name="e_wo_entrp">   -616.36363104 </i>
    <i name="e_0_energy">   -616.38661152 </i>
   </energy>
  </scstep>
  <scstep>
   <time name="dav">   21.39   21.40</time>
   <time name="total">   24.11   24.12</time>
   <energy>
    <i name="e_fr_energy">   -616.41437142 </i>
    <i name="e_wo_entrp">   -616.36789653 </i>
    <i name="e_0_energy">   -616.39113397 </i>
   </energy>
  </scstep>
  <scstep>
   <time name="dav">   22.73   22.74</time>
   <time name="total">   25.42   25.43</time>
   <energy>
    <i name="e_fr_energy">   -616.41150697 </i>
    <i name="e_wo_entrp">   -616.36575393 </i>
    <i name="e_0_energy">   -616.38863045 </i>
   </energy>
  </scstep>
  <scstep>
   <time name="dav">   19.65   19.67</time>
   <time name="total">   22.37   22.39</time>
   <energy>
    <i name="e_fr_energy">   -616.40608623 </i>
    <i name="e_wo_entrp">   -616.36041391 </i>
    <i name="e_0_energy">   -616.38325007 </i>
   </energy>
  </scstep>
  <scstep>
   <time name="dav">   22.70   22.71</time>
   <time name="total">   24.09   24.10</time>
   <energy>
    <i name="alphaZ">   1646.47971768 </i>
    <i name="ewald"> 127449.20811872 </i>
    <i name="hartreedc">-177710.43825288 </i>
    <i name="XCdc">   1788.51626695 </i>
    <i name="pawpsdc">  49584.20647697 </i>
    <i name="pawaedc"> -48866.92501210 </i>
    <i name="eentropy">     -0.04535735 </i>
    <i name="bandstr">  -7431.58114838 </i>
    <i name="atom">  52924.17385108 </i>
    <i name="e_fr_energy">   -616.40533932 </i>
    <i name="e_wo_entrp">   -616.35998197 </i>
    <i name="e_0_energy">   -616.38266064 </i>
   </energy>
  </scstep>
  <structure>
   <crystal>
    <varray name="basis" >
     <v>      11.59820000       0.00000000       0.00000000 </v>
     <v>      -5.79910000      10.04433584       0.00000000 </v>
     <v>       0.00000000       0.00000000      21.04820000 </v>
    </varray>
    <i name="volume">   2452.03565189 </i>
    <varray name="rec_basis" >
     <v>       0.08622028       0.04977930       0.00000000 </v>
     <v>       0.00000000       0.09955860       0.00000000 </v>
     <v>       0.00000000       0.00000000       0.04751000 </v>
    </varray>
   </crystal>
   <varray name="positions" >
    <v>       0.00000000       0.00000000       0.45993000 </v>
    <v>       0.66667000       0.00000000       0.45993000 </v>
    <v>       0.00000000       0.33333000       0.45993000 </v>
    <v>       0.33333000       0.33333000       0.45993000 </v>
    <v>       0.33333000       0.66667000       0.45993000 </v>
    <v>       0.66667000       0.66667000       0.45993000 </v>
    <v>       0.22222000       0.11111000       0.30996000 </v>
    <v>       0.11111000       0.22222000       0.15999000 </v>
    <v>       0.33333000       0.00000000       0.45993000 </v>
    <v>       0.55556000       0.11111000       0.30996000 </v>
    <v>       0.44444000       0.22222000       0.15999000 </v>
    <v>       0.88889000       0.11111000       0.30996000 </v>
    <v>       0.77778000       0.22222000       0.15999000 </v>
    <v>       0.22222000       0.44444000       0.30996000 </v>
    <v>       0.11111000       0.55556000       0.15999000 </v>
    <v>       0.55556000       0.44444000       0.30996000 </v>
    <v>       0.44444000       0.55556000       0.15999000 </v>
    <v>       0.66667000       0.33333000       0.45993000 </v>
    <v>       0.88889000       0.44444000       0.30996000 </v>
    <v>       0.77778000       0.55556000       0.15999000 </v>
    <v>       0.00000000       0.66667000       0.45993000 </v>
    <v>       0.22222000       0.77778000       0.30996000 </v>
    <v>       0.11111000       0.88889000       0.15999000 </v>
    <v>       0.55556000       0.77778000       0.30996000 </v>
    <v>       0.44444000       0.88889000       0.15999000 </v>
    <v>       0.88889000       0.77778000       0.30996000 </v>
    <v>       0.77778000       0.88889000       0.15999000 </v>
    <v>       0.00000000       0.00000000       0.12250000 </v>
    <v>       0.11111000       0.22222000       0.27247000 </v>
    <v>       0.22222000       0.11111000       0.42244000 </v>
    <v>       0.11111000       0.22222000       0.04751000 </v>
    <v>       0.11111000       0.22222000       0.49742000 </v>
    <v>       0.00000000       0.00000000       0.34745000 </v>
    <v>       0.22222000       0.11111000       0.19748000 </v>
    <v>       0.33333000       0.00000000       0.12250000 </v>
    <v>       0.44444000       0.22222000       0.27247000 </v>
    <v>       0.55556000       0.11111000       0.42244000 </v>
    <v>       0.44444000       0.22222000       0.04751000 </v>
    <v>       0.44444000       0.22222000       0.49742000 </v>
    <v>       0.33333000       0.00000000       0.34745000 </v>
    <v>       0.55556000       0.11111000       0.19748000 </v>
    <v>       0.66667000       0.00000000       0.12250000 </v>
    <v>       0.77778000       0.22222000       0.27247000 </v>
    <v>       0.88889000       0.11111000       0.42244000 </v>
    <v>       0.77778000       0.22222000       0.04751000 </v>
    <v>       0.77778000       0.22222000       0.49742000 </v>
    <v>       0.66667000       0.00000000       0.34745000 </v>
    <v>       0.88889000       0.11111000       0.19748000 </v>
    <v>       0.00000000       0.33333000       0.12250000 </v>
    <v>       0.11111000       0.55556000       0.27247000 </v>
    <v>       0.22222000       0.44444000       0.42244000 </v>
    <v>       0.11111000       0.55556000       0.04751000 </v>
    <v>       0.11111000       0.55556000       0.49742000 </v>
    <v>       0.00000000       0.33333000       0.34745000 </v>
    <v>       0.22222000       0.44444000       0.19748000 </v>
    <v>       0.33333000       0.33333000       0.12250000 </v>
    <v>       0.44444000       0.55556000       0.27247000 </v>
    <v>       0.55556000       0.44444000       0.42244000 </v>
    <v>       0.44444000       0.55556000       0.04751000 </v>
    <v>       0.44444000       0.55556000       0.49742000 </v>
    <v>       0.33333000       0.33333000       0.34745000 </v>
    <v>       0.55556000       0.44444000       0.19748000 </v>
    <v>       0.66667000       0.33333000       0.12250000 </v>
    <v>       0.77778000       0.55556000       0.27247000 </v>
    <v>       0.88889000       0.44444000       0.42244000 </v>
    <v>       0.77778000       0.55556000       0.04751000 </v>
    <v>       0.77778000       0.55556000       0.49742000 </v>
    <v>       0.66667000       0.33333000       0.34745000 </v>
    <v>       0.88889000       0.44444000       0.19748000 </v>
    <v>       0.00000000       0.66667000       0.12250000 </v>
    <v>       0.11111000       0.88889000       0.27247000 </v>
    <v>       0.22222000       0.77778000       0.42244000 </v>
    <v>       0.11111000       0.88889000       0.04751000 </v>
    <v>       0.11111000       0.88889000       0.49742000 </v>
    <v>       0.00000000       0.66667000       0.34745000 </v>
    <v>       0.22222000       0.77778000       0.19748000 </v>
    <v>       0.33333000       0.66667000       0.12250000 </v>
    <v>       0.44444000       0.88889000       0.27247000 </v>
    <v>       0.55556000       0.77778000       0.42244000 </v>
    <v>       0.44444000       0.88889000       0.04751000 </v>
    <v>       0.44444000       0.88889000       0.49742000 </v>
    <v>       0.33333000       0.66667000       0.34745000 </v>
    <v>       0.55556000       0.77778000       0.19748000 </v>
    <v>       0.66667000       0.66667000       0.12250000 </v>
    <v>       0.77778000       0.88889000       0.27247000 </v>
    <v>       0.88889000       0.77778000       0.42244000 </v>
    <v>       0.77778000       0.88889000       0.04751000 </v>
    <v>       0.77778000       0.88889000       0.49742000 </v>
    <v>       0.66667000       0.66667000       0.34745000 </v>
    <v>       0.88889000       0.77778000       0.19748000 </v>
   </varray>
  </structure>
  <varray name="forces" >
   <v>      -0.08378607       0.04837391      -1.03452433 </v>
   <v>       0.20576589      -0.14269403      -0.95039109 </v>
   <v>       0.22645960      -0.10685147      -0.95039109 </v>
   <v>      -0.08358049       0.09234575      -1.02602161 </v>
   <v>       0.24300520      -0.14029912      -0.97311842 </v>
   <v>      -0.12176401       0.02620995      -1.02602161 </v>
   <v>      -0.19338555       0.10328186      -0.33885033 </v>
   <v>      -0.16965033      -0.19245089      -0.62253125 </v>
   <v>      -0.15213941       0.07917731       0.11973338 </v>
   <v>       0.16279070      -0.11766425      -0.30712871 </v>
   <v>       0.25038704      -0.09067722      -0.25246357 </v>
   <v>       0.03234334      -0.01867344      -0.27300828 </v>
   <v>       0.08134243      -0.04696307      -0.43197466 </v>
   <v>       0.03096609      -0.01190289      -0.27889352 </v>
   <v>       0.14676570       0.27325623      -2.22688896 </v>
   <v>      -0.21710673       0.12534663      -0.32902545 </v>
   <v>      -0.38515737       0.22237071      -0.26226307 </v>
   <v>      -0.12361457       0.07136891       0.14306442 </v>
   <v>       0.18329557      -0.08214876      -0.30712871 </v>
   <v>       0.20372229      -0.17150293      -0.25246357 </v>
   <v>      -0.14463927       0.09216794       0.11973338 </v>
   <v>       0.16286428      -0.09402974      -0.36310946 </v>
   <v>       0.07327530      -0.04230551      -0.71488246 </v>
   <v>       0.02579125      -0.02086598      -0.27889352 </v>
   <v>      -0.16326399      -0.26373094      -2.22688896 </v>
   <v>      -0.18613749       0.11583587      -0.33885033 </v>
   <v>       0.08184220       0.24314694      -0.62253125 </v>
   <v>      -0.12119058       0.06996941      -0.01790812 </v>
   <v>       0.00931303      -0.03420292       0.10496634 </v>
   <v>      -1.38502579       0.78211696       1.22587504 </v>
   <v>       0.02315887       0.07437694       0.22676024 </v>
   <v>      -0.03275294       0.01530254      -1.16374934 </v>
   <v>       0.02386399      -0.01377788       0.67060650 </v>
   <v>      -0.10025552       0.02174086       0.25223696 </v>
   <v>      -0.01569889      -0.01278849      -0.03807899 </v>
   <v>      -0.02243541       0.00138142       0.25169951 </v>
   <v>       1.11203384      -0.64102813       0.73191380 </v>
   <v>      -0.19725287      -0.07397036      -0.16735707 </v>
   <v>      -1.18953263       0.68336476      -0.61715944 </v>
   <v>      -0.12738058       0.08939449       0.60064924 </v>
   <v>       0.08931810      -0.00703666       0.27176945 </v>
   <v>       0.35792986       0.13201578       0.12461243 </v>
   <v>       0.00020355      -0.00011752       0.15700065 </v>
   <v>       0.01595773      -0.00921320       1.98003529 </v>
   <v>      -0.02092245       0.01207958      -0.07350763 </v>
   <v>       1.52310130      -0.87936295      -0.75688872 </v>
   <v>       0.04856707      -0.00762251       0.64066973 </v>
   <v>       0.03054465      -0.01763496       0.20435342 </v>
   <v>       0.06463591      -0.37598424       0.12461243 </v>
   <v>      -0.02220506      -0.00980298       0.19647242 </v>
   <v>       0.01200575      -0.01567956       1.99249717 </v>
   <v>      -0.15675881       0.22589429       1.04243219 </v>
   <v>       1.53723873      -0.88556299      -0.74531468 </v>
   <v>       0.03088482      -0.03824906       0.64066973 </v>
   <v>      -0.01944345      -0.06426932       0.20323523 </v>
   <v>      -0.15275873       0.00794266      -0.28662384 </v>
   <v>       0.02522632      -0.01456442       0.13309226 </v>
   <v>      -1.38902604       0.80195456       1.23700774 </v>
   <v>       0.02772610      -0.01600767      -0.15851004 </v>
   <v>      -0.03602837       0.02080099      -1.12663579 </v>
   <v>       0.03434692      -0.03193676       0.68362313 </v>
   <v>      -0.05921413       0.03418730       0.25962059 </v>
   <v>       0.20151363      -0.11634395       0.08258777 </v>
   <v>      -0.01241405       0.01873892       0.25169951 </v>
   <v>       1.11116356      -0.64253549       0.73191380 </v>
   <v>      -0.03456622       0.20781118      -0.16735707 </v>
   <v>      -1.18657756       0.68848309      -0.61715944 </v>
   <v>      -0.12116223       0.06995305       0.59561231 </v>
   <v>       0.05075298      -0.07383342       0.27176945 </v>
   <v>       0.00322571       0.01998988      -0.03807899 </v>
   <v>      -0.04244837       0.02450758       0.25856843 </v>
   <v>       1.09263250      -0.63083167       0.73864893 </v>
   <v>       0.14842205      -0.08569151       0.12075353 </v>
   <v>      -1.18682325       0.68521272      -0.61162527 </v>
   <v>      -0.14110819       0.06561757       0.60064924 </v>
[...]
   <energy>
    <i name="e_fr_energy">   -625.08690893 </i>
    <i name="e_wo_entrp">   -625.02057440 </i>
    <i name="e_0_energy">   -625.05374167 </i>
   </energy>
  </scstep>
  <scstep>
   <time name="dav">   17.40   17.41</time>
   <time name="total">   20.01   20.02</time>
   <energy>
    <i name="e_fr_energy">   -625.08693158 </i>
    <i name="e_wo_entrp">   -625.02057726 </i>
    <i name="e_0_energy">   -625.05375442 </i>
   </energy>
  </scstep>
  <scstep>
   <time name="dav">   13.76   13.77</time>
   <time name="total">   16.36   16.37</time>
   <energy>
    <i name="e_fr_energy">   -625.08694750 </i>
    <i name="e_wo_entrp">   -625.02058152 </i>
    <i name="e_0_energy">   -625.05376451 </i>
   </energy>
  </scstep>
  <scstep>
   <time name="dav">   15.58   15.59</time>
   <time name="total">   18.19   18.20</time>
   <energy>
    <i name="e_fr_energy">   -625.08697191 </i>
    <i name="e_wo_entrp">   -625.02060645 </i>
    <i name="e_0_energy">   -625.05378918 </i>
   </energy>
  </scstep>
  <scstep>
   <time name="dav">   14.74   14.75</time>
   <time name="total">   17.33   17.34</time>
   <energy>
    <i name="e_fr_energy">   -625.08699127 </i>
    <i name="e_wo_entrp">   -625.02063546 </i>
    <i name="e_0_energy">   -625.05381337 </i>
   </energy>
  </scstep>
  <scstep>
   <time name="dav">   14.04   14.05</time>
   <time name="total">   16.64   16.65</time>
   <energy>
    <i name="e_fr_energy">   -625.08700665 </i>
    <i name="e_wo_entrp">   -625.02064358 </i>
    <i name="e_0_energy">   -625.05382511 </i>
   </energy>
  </scstep>
  <scstep>
   <time name="dav">   13.74   13.75</time>
   <time name="total">   16.32   16.33</time>
   <energy>
    <i name="e_fr_energy">   -625.08701766 </i>
    <i name="e_wo_entrp">   -625.02065836 </i>
    <i name="e_0_energy">   -625.05383801 </i>
   </energy>
  </scstep>
  <scstep>
   <time name="dav">   13.88   13.89</time>
   <time name="total">   16.47   16.48</time>
   <energy>
    <i name="e_fr_energy">   -625.08702782 </i>
    <i name="e_wo_entrp">   -625.02066592 </i>
    <i name="e_0_energy">   -625.05384687 </i>
   </energy>
  </scstep>
  <scstep>
   <time name="dav">   13.22   13.23</time>
   <time name="total">   15.85   15.86</time>
   <energy>
    <i name="e_fr_energy">   -625.08703526 </i>
    <i name="e_wo_entrp">   -625.02067332 </i>
    <i name="e_0_energy">   -625.05385429 </i>
   </energy>
  </scstep>
  <scstep>
   <time name="dav">   13.36   13.37</time>
   <time name="total">   15.97   15.97</time>
   <energy>
    <i name="e_fr_energy">   -625.08704208 </i>
    <i name="e_wo_entrp">   -625.02068303 </i>
    <i name="e_0_energy">   -625.05386255 </i>
   </energy>
  </scstep>
  <scstep>
   <time name="dav">   13.38   13.38</time>
   <time name="total">   16.00   16.01</time>
   <energy>
    <i name="e_fr_energy">   -625.08704779 </i>
    <i name="e_wo_entrp">   -625.02068642 </i>
    <i name="e_0_energy">   -625.05386711 </i>
   </energy>
  </scstep>
  <scstep>
   <time name="dav">   12.39   12.39</time>
   <time name="total">   14.99   15.00</time>
   <energy>
    <i name="e_fr_energy">   -625.08705093 </i>
    <i name="e_wo_entrp">   -625.02069122 </i>
    <i name="e_0_energy">   -625.05387107 </i>
   </energy>
  </scstep>
  <scstep>
   <time name="dav">   12.54   12.55</time>
   <time name="total">   15.15   15.16</time>
   <energy>
    <i name="e_fr_energy">   -625.08705387 </i>
    <i name="e_wo_entrp">   -625.02069504 </i>
    <i name="e_0_energy">   -625.05387446 </i>
   </energy>
  </scstep>
  <scstep>
   <time name="dav">   12.39   12.40</time>
   <time name="total">   15.00   15.01</time>
   <energy>
    <i name="e_fr_energy">   -625.08705572 </i>
    <i name="e_wo_entrp">   -625.02069539 </i>
    <i name="e_0_energy">   -625.05387555 </i>
   </energy>
  </scstep>
  <scstep>
   <time name="dav">   12.40   12.40</time>
   <time name="total">   13.69   13.69</time>
   <energy>
    <i name="alphaZ">   1646.47971768 </i>
    <i name="ewald"> 132085.12563227 </i>
    <i name="hartreedc">-182330.48213512 </i>
    <i name="XCdc">   1797.81881812 </i>
    <i name="pawpsdc">  51121.27958267 </i>
    <i name="pawaedc"> -50411.68806839 </i>
    <i name="eentropy">     -0.06636024 </i>
    <i name="bandstr">  -7457.72809475 </i>
    <i name="atom">  52924.17385108 </i>
    <i name="e_fr_energy">   -625.08705666 </i>
    <i name="e_wo_entrp">   -625.02069643 </i>
    <i name="e_0_energy">   -625.05387655 </i>
   </energy>
  </scstep>
  <structure>
   <crystal>
    <varray name="basis" >
     <v>      11.59820000       0.00000000       0.00000000 </v>
     <v>      -5.79910000      10.04433584       0.00000000 </v>
     <v>       0.00000000       0.00000000      21.04820000 </v>
    </varray>
    <i name="volume">   2452.03565189 </i>
    <varray name="rec_basis" >
     <v>       0.08622028       0.04977930       0.00000000 </v>
     <v>       0.00000000       0.09955860       0.00000000 </v>
     <v>       0.00000000       0.00000000       0.04751000 </v>
    </varray>
   </crystal>
   <varray name="positions" >
    <v>       0.00277229       0.99722771       0.45413433 </v>
    <v>       0.69468526       0.97983410       0.45033804 </v>
    <v>       0.02016590       0.30531474       0.45033804 </v>
    <v>       0.33817032       0.33609047       0.45503943 </v>
    <v>       0.35802740       0.64197260       0.45169086 </v>
    <v>       0.66390953       0.66182968       0.45503943 </v>
    <v>       0.21998975       0.11362197       0.30652384 </v>
    <v>       0.11111000       0.22222000       0.15999000 </v>
    <v>       0.32297974       0.00964169       0.45653595 </v>
    <v>       0.55263945       0.11370303       0.31259410 </v>
    <v>       0.44444000       0.22222000       0.15999000 </v>
    <v>       0.89011448       0.10988552       0.30824446 </v>
    <v>       0.77778000       0.22222000       0.15999000 </v>
    <v>       0.22357391       0.44273521       0.30921205 </v>
    <v>       0.11111000       0.55556000       0.15999000 </v>
    <v>       0.55359669       0.44640331       0.30638517 </v>
    <v>       0.44444000       0.55556000       0.15999000 </v>
    <v>       0.65768497       0.34231503       0.45694043 </v>
    <v>       0.88629697       0.44736055       0.31259410 </v>
    <v>       0.77778000       0.55556000       0.15999000 </v>
    <v>       0.99035831       0.67702026       0.45653595 </v>
    <v>       0.21904503       0.78095497       0.31233178 </v>
    <v>       0.11111000       0.88889000       0.15999000 </v>
    <v>       0.55726479       0.77642609       0.30921205 </v>
    <v>       0.44444000       0.88889000       0.15999000 </v>
    <v>       0.88637803       0.78001025       0.30652384 </v>
    <v>       0.77778000       0.88889000       0.15999000 </v>
    <v>       0.00000000       0.00000000       0.12250000 </v>
    <v>       0.10687381       0.22693355       0.27486898 </v>
    <v>       0.20607303       0.12340890       0.42431067 </v>
    <v>       0.11111000       0.22222000       0.04751000 </v>
    <v>       0.10457387       0.22810935       0.49364245 </v>
    <v>       0.00142100       0.99857900       0.33899448 </v>
    <v>       0.22222000       0.11111000       0.19748000 </v>
    <v>       0.33333000       0.00000000       0.12250000 </v>
    <v>       0.44809652       0.22006990       0.27300109 </v>
    <v>       0.54092461       0.12403990       0.42908099 </v>
    <v>       0.44444000       0.22222000       0.04751000 </v>
    <v>       0.42844886       0.24101706       0.49068224 </v>
    <v>       0.32878158       0.00694438       0.35029444 </v>
    <v>       0.55556000       0.11111000       0.19748000 </v>
    <v>       0.66667000       0.00000000       0.12250000 </v>
    <v>       0.77649395       0.22350605       0.27976518 </v>
    <v>       0.90785859       0.09214141       0.42190029 </v>
    <v>       0.77778000       0.22222000       0.04751000 </v>
    <v>       0.80752790       0.19247210       0.47530815 </v>
    <v>       0.66693558       0.99873311       0.36040942 </v>
    <v>       0.88889000       0.11111000       0.19748000 </v>
    <v>       0.00000000       0.33333000       0.12250000 </v>
    <v>       0.11100608       0.55728725       0.27979559 </v>
    <v>       0.24180738       0.42697431       0.42173583 </v>
    <v>       0.11111000       0.55556000       0.04751000 </v>
    <v>       0.15152494       0.53828411       0.47526735 </v>
    <v>       0.00126689       0.33306442       0.36040942 </v>
    <v>       0.22222000       0.44444000       0.19748000 </v>
    <v>       0.33333000       0.33333000       0.12250000 </v>
    <v>       0.43957001       0.56042999       0.27530466 </v>
    <v>       0.54159142       0.45840858       0.42324135 </v>
    <v>       0.44444000       0.55556000       0.04751000 </v>
    <v>       0.44049033       0.55950967       0.49348977 </v>
    <v>       0.33560099       0.33073087       0.33920904 </v>
    <v>       0.55556000       0.44444000       0.19748000 </v>
    <v>       0.66667000       0.33333000       0.12250000 </v>
    <v>       0.77993010       0.55190348       0.27300109 </v>
    <v>       0.87596010       0.45907539       0.42908099 </v>
    <v>       0.77778000       0.55556000       0.04751000 </v>
    <v>       0.75898294       0.57155114       0.49068224 </v>
    <v>       0.66140398       0.33859602       0.35131360 </v>
    <v>       0.88889000       0.44444000       0.19748000 </v>
    <v>       0.00000000       0.66667000       0.12250000 </v>
    <v>       0.11357804       0.88642196       0.27331049 </v>
    <v>       0.20503242       0.79496758       0.42618476 </v>
    <v>       0.11111000       0.88889000       0.04751000 </v>
    <v>       0.09433696       0.90566304       0.49264139 </v>
    <v>       0.99305562       0.67121842       0.35029444 </v>
    <v>       0.22222000       0.77778000       0.19748000 </v>
    <v>       0.33333000       0.66667000       0.12250000 </v>
    <v>       0.44271275       0.88899392       0.27979559 </v>
    <v>       0.57302569       0.75819262       0.42173583 </v>
    <v>       0.44444000       0.88889000       0.04751000 </v>
    <v>       0.46171589       0.84847506       0.47526735 </v>
    <v>       0.33415272       0.66584728       0.36114737 </v>
    <v>       0.55556000       0.77778000       0.19748000 </v>
    <v>       0.66667000       0.66667000       0.12250000 </v>
    <v>       0.77306645       0.89312619       0.27486898 </v>
    <v>       0.87659110       0.79392697       0.42431067 </v>
    <v>       0.77778000       0.88889000       0.04751000 </v>
    <v>       0.77189065       0.89542613       0.49364245 </v>
    <v>       0.66926913       0.66439901       0.33920904 </v>
    <v>       0.88889000       0.77778000       0.19748000 </v>
   </varray>
  </structure>
  <varray name="forces" >
   <v>       0.40075665      -0.23137696       0.47858751 </v>
   <v>       0.21014779       0.10028449       0.16269443 </v>
   <v>       0.01822498      -0.23213557       0.16269443 </v>
   <v>       0.34215831      -0.31211670       0.35480175 </v>
   <v>      -0.61418240       0.35459837      -0.62547925 </v>
   <v>       0.44138015      -0.14025944       0.35480175 </v>
   <v>       0.06205743      -0.03902329       0.08975195 </v>
   <v>      -0.20424568       0.09249525      -1.53574775 </v>
   <v>      -0.12800507      -0.01782172       0.17357089 </v>
   <v>      -0.07049750      -0.05111947       0.14099602 </v>
   <v>       0.22017306      -0.22642836      -1.40207500 </v>
   <v>       0.03504025      -0.02023050      -0.12144308 </v>
   <v>      -0.08099443       0.04676216      -1.12658320 </v>
   <v>       0.03010256       0.11608512      -0.06387205 </v>
   <v>      -0.10590236       0.10011436      -1.03769654 </v>
   <v>      -0.01481652       0.00855432       0.04257502 </v>
   <v>      -0.26355649       0.15216441      -1.46802365 </v>
   <v>      -0.15798548       0.09121296       0.21917798 </v>
   <v>       0.00902201       0.08661236       0.14099602 </v>
   <v>       0.30617925      -0.07746128      -1.40207500 </v>
   <v>      -0.04856848       0.11976651       0.17357089 </v>
   <v>       0.03202426      -0.01848922       0.22856009 </v>
   <v>       0.25757704      -0.14871217      -1.34991403 </v>
   <v>      -0.08548138      -0.08411214      -0.06387205 </v>
   <v>      -0.13965276       0.04165695      -1.03769654 </v>
   <v>       0.06482388      -0.03423166       0.08975195 </v>
   <v>      -0.18222608       0.13063432      -1.53574775 </v>
   <v>      -0.02042436       0.01179201       0.30903969 </v>
   <v>      -0.12820397       0.02406898      -0.10347198 </v>
   <v>      -0.01427264      -0.00629848       0.04724095 </v>
   <v>      -0.03111489       0.04333482       0.12263010 </v>
   <v>       0.05938659      -0.09852325      -0.28989217 </v>
   <v>      -0.08948165       0.05166226      -0.00418774 </v>
   <v>      -0.19598905       0.14863556       0.60201512 </v>
   <v>       0.03919746      -0.01017889       0.26908314 </v>
   <v>       0.03342375      -0.02993693       0.06478941 </v>
   <v>       0.14805901      -0.04280772      -0.13768163 </v>
   <v>      -0.01507823      -0.01728508       0.07405596 </v>
   <v>      -0.08780330       0.12508132       0.12221964 </v>
   <v>       0.05210082       0.04075694       0.05570593 </v>
   <v>       0.20812637      -0.11197962       0.89525951 </v>
   <v>       0.04021533       0.04093414       0.26701205 </v>
   <v>       0.16169084      -0.09335225      -0.00775368 </v>
   <v>      -0.11030933       0.06368712      -0.09851257 </v>
   <v>       0.03971155      -0.02292747       0.16121346 </v>
   <v>       0.15063709      -0.08697037       0.12385760 </v>
   <v>       0.00099336       0.05938138      -0.02481234 </v>
   <v>      -0.09421525       0.05439520       0.73668582 </v>
   <v>      -0.01534234      -0.05529456       0.26701205 </v>
   <v>       0.07521930      -0.14280945      -0.01494989 </v>
   <v>      -0.17593397       0.10166975      -0.04425904 </v>
   <v>       0.05657042       0.07170526       0.09827627 </v>
   <v>       0.22998050       0.38616524       0.23683842 </v>
   <v>      -0.05092911      -0.03055097      -0.02481234 </v>
   <v>      -0.05654383       0.03817053       0.70432529 </v>
   <v>       0.01966213       0.03036632       0.29852423 </v>
   <v>      -0.01815395       0.01048119      -0.14279684 </v>
   <v>      -0.10558139       0.06095745       0.10235784 </v>
   <v>      -0.01128749       0.00651683       0.11248672 </v>
   <v>       0.32100869      -0.18533445      -0.05039556 </v>
   <v>      -0.08338489       0.03096885      -0.00738838 </v>
   <v>      -0.22769663       0.13146071       0.55389234 </v>
   <v>      -0.00671082       0.00387450       0.28024763 </v>
   <v>       0.04263802      -0.01397735       0.06478941 </v>
   <v>       0.11110208      -0.10681900      -0.13768163 </v>
   <v>       0.00743021       0.02170067       0.07405596 </v>
   <v>      -0.15222525       0.01349922       0.12221964 </v>
   <v>       0.04581342      -0.02645039       0.04083025 </v>
   <v>       0.20104038      -0.12425291       0.89525951 </v>
   <v>       0.02841390      -0.02885655       0.26908314 </v>
   <v>       0.01572606      -0.00907945       0.04901384 </v>
   <v>      -0.00704393       0.00406682      -0.15094491 </v>
   <v>      -0.00349917       0.00202025       0.03181210 </v>
   <v>      -0.24618434       0.14213459       0.09328182 </v>
   <v>      -0.00924613      -0.06549911       0.05570593 </v>
   <v>       0.16455011      -0.09500305       0.85337931 </v>
   <v>      -0.01301663       0.00751516       0.20341537 </v>
   <v>       0.16128626       0.00626290      -0.01494989 </v>
   <v>      -0.17601557       0.10152841      -0.04425904 </v>
   <v>      -0.03381337      -0.08484406       0.09827627 </v>
   <v>      -0.21943866      -0.39225158       0.23683842 </v>
   <v>       0.04912555      -0.02836265       0.28973156 </v>
   <v>      -0.06132856       0.02988313       0.70432529 </v>
   <v>      -0.01646694      -0.03221106       0.29852423 </v>
   <v>      -0.08494634       0.09899340      -0.10347198 </v>
   <v>      -0.00168168       0.01550971       0.04724095 </v>
   <v>      -0.05308650       0.00527887       0.12263010 </v>
   <v>       0.11501693      -0.00216867      -0.28989217 </v>
   <v>      -0.06851226       0.05672901      -0.00738838 </v>
   <v>      -0.22671670       0.09541372       0.60201512 </v>
  </varray>
  <varray name="stress" >
   <v>     -19.76337839     -12.63234227       1.54777996 </v>
   <v>     -12.63234227     -34.34995081      -0.89361118 </v>
   <v>       1.54922688      -0.89444656       6.32133589 </v>
  </varray>
  <energy>
   <i name="e_fr_energy">   -625.08705666 </i>
   <i name="e_wo_entrp">   -625.02069643 </i>
   <i name="e_0_energy">   -625.05387655 </i>
  </energy>
  <time name="totalsc">  674.37  674.81</time>
 </calculation>
 <calculation>
  <scstep>
   <time name="dav">   16.42   16.43</time>
   <time name="total">   19.02   19.05</time>
   <energy>
    <i name="alphaZ">   1646.47971768 </i>
    <i name="ewald"> 132035.17968977 </i>
    <i name="hartreedc">-182280.85902373 </i>
    <i name="XCdc">   1797.78828070 </i>
    <i name="pawpsdc">  51121.27980483 </i>
    <i name="pawaedc"> -50411.68828751 </i>
    <i name="eentropy">     -0.06599693 </i>
    <i name="bandstr">  -7457.40471855 </i>
    <i name="atom">  52924.17385108 </i>
    <i name="e_fr_energy">   -625.11668266 </i>
    <i name="e_wo_entrp">   -625.05068573 </i>
    <i name="e_0_energy">   -625.08368420 </i>
   </energy>
  </scstep>
  <scstep>
   <time name="dav">   21.18   21.19</time>
   <time name="total">   23.77   23.78</time>
   <energy>
    <i name="e_fr_energy">   -625.12656653 </i>
    <i name="e_wo_entrp">   -625.05902017 </i>
    <i name="e_0_energy">   -625.09279335 </i>
   </energy>
  </scstep>
  <scstep>
   <time name="dav">   28.15   28.16</time>
   <time name="total">   30.80   30.82</time>
   <energy>
    <i name="e_fr_energy">   -625.12681176 </i>
    <i name="e_wo_entrp">   -625.06155864 </i>
    <i name="e_0_energy">   -625.09418520 </i>
   </energy>
  </scstep>
  <scstep>
   <time name="dav">   23.72   23.73</time>
   <time name="total">   26.30   26.32</time>
   <energy>
    <i name="e_fr_energy">   -625.12653994 </i>
    <i name="e_wo_entrp">   -625.05929094 </i>
    <i name="e_0_energy">   -625.09291544 </i>
   </energy>
  </scstep>
  <scstep>
   <time name="dav">   25.89   25.91</time>
   <time name="total">   28.52   28.54</time>
   <energy>
    <i name="e_fr_energy">   -625.12650419 </i>
    <i name="e_wo_entrp">   -625.06041668 </i>
    <i name="e_0_energy">   -625.09346044 </i>
   </energy>
  </scstep>
  <scstep>
   <time name="dav">   24.50   24.51</time>
   <time name="total">   27.10   27.11</time>
   <energy>
    <i name="e_fr_energy">   -625.12635044 </i>
    <i name="e_wo_entrp">   -625.05981116 </i>
    <i name="e_0_energy">   -625.09308080 </i>
   </energy>
  </scstep>
  <scstep>
   <time name="dav">   23.54   23.56</time>
   <time name="total">   26.15   26.17</time>
   <energy>
    <i name="e_fr_energy">   -625.12628120 </i>
    <i name="e_wo_entrp">   -625.05986957 </i>
    <i name="e_0_energy">   -625.09307539 </i>
   </energy>
  </scstep>
  <scstep>
   <time name="dav">   24.65   24.66</time>
   <time name="total">   27.27   27.28</time>
   <energy>
    <i name="e_fr_energy">   -625.12633331 </i>
    <i name="e_wo_entrp">   -625.05989094 </i>
    <i name="e_0_energy">   -625.09311212 </i>
   </energy>
  </scstep>
  <scstep>
   <time name="dav">   23.70   23.72</time>
   <time name="total">   26.29   26.31</time>
   <energy>
    <i name="e_fr_energy">   -625.12633812 </i>
    <i name="e_wo_entrp">   -625.05994519 </i>
    <i name="e_0_energy">   -625.09314166 </i>
   </energy>
  </scstep>
  <scstep>
