<?xml version="1.0" encoding="ISO-8859-1"?>
<modeling>
 <generator>
  <i name="program" type="string">vasp </i>
  <i name="version" type="string">6.4.3  </i>
  <i name="subversion" type="string">19Mar24 (build Mar 01 2025 17:53:50) complex                          parallel </i>
  <i name="platform" type="string">Shaheen </i>
  <i name="date" type="string">2025 04 21 </i>
  <i name="time" type="string">16:34:03 </i>
 </generator>
 <incar>
  <i type="int" name="ISTART">     1</i>
  <i type="string" name="PREC">Accurate   (Precision level: Normal or Accurate, set Accurate when perform structure lattice relaxation calculation)</i>
  <i type="logical" name="ADDGRID"> T  </i>
  <i type="int" name="ISPIN">     2</i>
  <i type="int" name="NELM">    90</i>
  <i type="int" name="NELMIN">     6</i>
  <i type="int" name="IBRION">     2</i>
  <i name="EDIFF">      0.00000100</i>
  <i name="EDIFFG">     -0.02000000</i>
  <i type="int" name="NSW">   300</i>
  <i type="int" name="ISIF">     2</i>
  <i name="ENCUT">    520.00000000</i>
  <v name="MAGMOM">      0.60000000      0.60000000      0.60000000      0.60000000      0.60000000      0.60000000      1.00000000      1.00000000      1.00000000      1.00000000      1.00000000      1.00000000      1.00000000      1.00000000      1.00000000      1.00000000      1.00000000      1.00000000      1.00000000      1.00000000
      1.00000000      1.00000000      1.00000000      1.00000000      1.00000000      1.00000000      1.00000000      0.60000000      0.60000000      0.60000000      0.60000000      0.60000000      0.60000000      0.60000000      0.60000000      0.60000000      0.60000000      0.60000000      0.60000000      0.60000000
      0.60000000      0.60000000      0.60000000      0.60000000      0.60000000      0.60000000      0.60000000      0.60000000      0.60000000      0.60000000      0.60000000      0.60000000      0.60000000      0.60000000      0.60000000      0.60000000      0.60000000      0.60000000      0.60000000      0.60000000
      0.60000000      0.60000000      0.60000000      0.60000000      0.60000000      0.60000000      0.60000000      0.60000000      0.60000000      0.60000000      0.60000000      0.60000000      0.60000000      0.60000000      0.60000000      0.60000000      0.60000000      0.60000000      0.60000000      0.60000000
      0.60000000      0.60000000      0.60000000      0.60000000      0.60000000      0.60000000      0.60000000      0.60000000      0.60000000      0.60000000</v>
  <i type="logical" name="LREAL"> F  </i>
  <i type="int" name="ISMEAR">     0</i>
  <i name="SIGMA">      0.05000000</i>
  <i type="int" name="LMAXMIX">     6</i>
  <i type="logical" name="LWAVE"> F  </i>
  <i type="logical" name="LCHARG"> F  </i>
  <i type="logical" name="LASPH"> T  </i>
  <i type="logical" name="LDAU"> T  </i>
  <i type="int" name="LDAUTYPE">     2</i>
  <v type="int" name="LDAUL">     2     3    -1</v>
  <v name="LDAUU">      2.00000000      5.00000000      0.00000000</v>
  <v name="LDAUJ">      0.00000000      0.00000000      0.00000000</v>
 </incar>
 <primitive_cell>
  <structure name="primitive_cell" >
   <crystal>
    <varray name="basis" >
     <v>      11.59820000       0.00000000       0.00000000 </v>
     <v>      -5.79910000      10.04433584       0.00000000 </v>
     <v>       0.00000000       0.00000000      21.04820000 </v>
    </varray>
    <i name="volume">   2452.03565189 </i>
    <varray name="rec_basis" >
     <v>       0.08622028       0.04977930       0.00000000 </v>
     <v>       0.00000000       0.09955860       0.00000000 </v>
     <v>       0.00000000       0.00000000       0.04751000 </v>
    </varray>
   </crystal>
   <varray name="positions" >
    <v>       0.01288581       0.98711419       0.47544940 </v>
    <v>       0.74885073       0.97876428       0.44815154 </v>
    <v>       0.02123572       0.25114927       0.44815154 </v>
    <v>       0.34511232       0.30755772       0.44389590 </v>
    <v>       0.31696110       0.68303890       0.47077537 </v>
    <v>       0.69244228       0.65488768       0.44389590 </v>
    <v>       0.21741786       0.10711109       0.30665307 </v>
    <v>       0.11111000       0.22222000       0.15999000 </v>
    <v>       0.32803094       0.01091681       0.46143500 </v>
    <v>       0.55350581       0.11328923       0.31742103 </v>
    <v>       0.44444000       0.22222000       0.15999000 </v>
    <v>       0.88820501       0.11179499       0.30514433 </v>
    <v>       0.77778000       0.22222000       0.15999000 </v>
    <v>       0.21862411       0.44020651       0.31427904 </v>
    <v>       0.11111000       0.55556000       0.15999000 </v>
    <v>       0.55644761       0.44355239       0.30670625 </v>
    <v>       0.44444000       0.55556000       0.15999000 </v>
    <v>       0.65690219       0.34309781       0.46304362 </v>
    <v>       0.88671077       0.44649419       0.31742103 </v>
    <v>       0.77778000       0.55556000       0.15999000 </v>
    <v>       0.98908319       0.67196906       0.46143500 </v>
    <v>       0.21943359       0.78056641       0.31252358 </v>
    <v>       0.11111000       0.88889000       0.15999000 </v>
    <v>       0.55979349       0.78137589       0.31427904 </v>
    <v>       0.44444000       0.88889000       0.15999000 </v>
    <v>       0.89288891       0.78258214       0.30665307 </v>
    <v>       0.77778000       0.88889000       0.15999000 </v>
    <v>       0.00000000       0.00000000       0.12250000 </v>
    <v>       0.11856339       0.23684609       0.27603617 </v>
    <v>       0.19719036       0.10449913       0.42901202 </v>
    <v>       0.11111000       0.22222000       0.04751000 </v>
    <v>       0.07023891       0.16637800       0.51358775 </v>
    <v>       0.00173791       0.99826209       0.31900965 </v>
    <v>       0.22222000       0.11111000       0.19748000 </v>
    <v>       0.33333000       0.00000000       0.12250000 </v>
    <v>       0.44450080       0.21999495       0.27412739 </v>
    <v>       0.53337423       0.11496237       0.42913599 </v>
    <v>       0.44444000       0.22222000       0.04751000 </v>
    <v>       0.41954731       0.23452008       0.49658177 </v>
    <v>       0.32653200       0.00430078       0.35299411 </v>
    <v>       0.55556000       0.11111000       0.19748000 </v>
    <v>       0.66667000       0.00000000       0.12250000 </v>
    <v>       0.77359705       0.22640295       0.27862218 </v>
    <v>       0.93256697       0.06743303       0.41462531 </v>
    <v>       0.77778000       0.22222000       0.04751000 </v>
    <v>       0.83120994       0.16879006       0.47055048 </v>
    <v>       0.67569827       0.00348814       0.35984982 </v>
    <v>       0.88889000       0.11111000       0.19748000 </v>
    <v>       1.00000000       0.33333000       0.12250000 </v>
    <v>       0.11800478       0.55842051       0.28402406 </v>
    <v>       0.20611368       0.36892922       0.43277807 </v>
    <v>       0.11111000       0.55556000       0.04751000 </v>
    <v>       0.16013815       0.57868113       0.50840418 </v>
    <v>       0.99651186       0.32430173       0.35984982 </v>
    <v>       0.22222000       0.44444000       0.19748000 </v>
    <v>       0.33333000       0.33333000       0.12250000 </v>
    <v>       0.43947828       0.56052172       0.28067215 </v>
    <v>       0.53503662       0.46496338       0.43060084 </v>
    <v>       0.44444000       0.55556000       0.04751000 </v>
    <v>       0.40395872       0.59604128       0.48736535 </v>
    <v>       0.33906216       0.32876524       0.35229585 </v>
    <v>       0.55556000       0.44444000       0.19748000 </v>
    <v>       0.66667000       0.33333000       0.12250000 </v>
    <v>       0.78000505       0.55549920       0.27412739 </v>
    <v>       0.88503763       0.46662577       0.42913599 </v>
    <v>       0.77778000       0.55556000       0.04751000 </v>
    <v>       0.76547992       0.58045269       0.49658177 </v>
    <v>       0.65784121       0.34215879       0.35082631 </v>
    <v>       0.88889000       0.44444000       0.19748000 </v>
    <v>       1.00000000       0.66667000       0.12250000 </v>
    <v>       0.11799829       0.88200171       0.27323662 </v>
    <v>       0.21850749       0.78149251       0.42969420 </v>
    <v>       0.11111000       0.88889000       0.04751000 </v>
    <v>       0.10544868       0.89455132       0.50897799 </v>
    <v>       0.99569922       0.67346800       0.35299411 </v>
    <v>       0.22222000       0.77778000       0.19748000 </v>
    <v>       0.33333000       0.66667000       0.12250000 </v>
    <v>       0.44157949       0.88199522       0.28402406 </v>
    <v>       0.63107078       0.79388632       0.43277807 </v>
    <v>       0.44444000       0.88889000       0.04751000 </v>
    <v>       0.42131887       0.83986185       0.50840418 </v>
    <v>       0.34007149       0.65992851       0.38209866 </v>
    <v>       0.55556000       0.77778000       0.19748000 </v>
    <v>       0.66667000       0.66667000       0.12250000 </v>
    <v>       0.76315391       0.88143661       0.27603617 </v>
    <v>       0.89550087       0.80280964       0.42901202 </v>
    <v>       0.77778000       0.88889000       0.04751000 </v>
    <v>       0.83362200       0.92976109       0.51358775 </v>
    <v>       0.67123476       0.66093784       0.35229585 </v>
    <v>       0.88889000       0.77778000       0.19748000 </v>
   </varray>
  </structure>
  <varray name="primitive_index" >
   <v type="int" >        1 </v>
   <v type="int" >        2 </v>
   <v type="int" >        3 </v>
   <v type="int" >        4 </v>
   <v type="int" >        5 </v>
   <v type="int" >        6 </v>
   <v type="int" >        7 </v>
   <v type="int" >        8 </v>
   <v type="int" >        9 </v>
   <v type="int" >       10 </v>
   <v type="int" >       11 </v>
   <v type="int" >       12 </v>
   <v type="int" >       13 </v>
   <v type="int" >       14 </v>
   <v type="int" >       15 </v>
   <v type="int" >       16 </v>
   <v type="int" >       17 </v>
   <v type="int" >       18 </v>
   <v type="int" >       19 </v>
   <v type="int" >       20 </v>
   <v type="int" >       21 </v>
   <v type="int" >       22 </v>
   <v type="int" >       23 </v>
   <v type="int" >       24 </v>
   <v type="int" >       25 </v>
   <v type="int" >       26 </v>
   <v type="int" >       27 </v>
   <v type="int" >       28 </v>
   <v type="int" >       29 </v>
   <v type="int" >       30 </v>
   <v type="int" >       31 </v>
   <v type="int" >       32 </v>
   <v type="int" >       33 </v>
   <v type="int" >       34 </v>
   <v type="int" >       35 </v>
   <v type="int" >       36 </v>
   <v type="int" >       37 </v>
   <v type="int" >       38 </v>
   <v type="int" >       39 </v>
   <v type="int" >       40 </v>
   <v type="int" >       41 </v>
   <v type="int" >       42 </v>
   <v type="int" >       43 </v>
   <v type="int" >       44 </v>
   <v type="int" >       45 </v>
   <v type="int" >       46 </v>
   <v type="int" >       47 </v>
   <v type="int" >       48 </v>
   <v type="int" >       49 </v>
   <v type="int" >       50 </v>
   <v type="int" >       51 </v>
   <v type="int" >       52 </v>
   <v type="int" >       53 </v>
   <v type="int" >       54 </v>
   <v type="int" >       55 </v>
   <v type="int" >       56 </v>
   <v type="int" >       57 </v>
   <v type="int" >       58 </v>
   <v type="int" >       59 </v>
   <v type="int" >       60 </v>
   <v type="int" >       61 </v>
   <v type="int" >       62 </v>
   <v type="int" >       63 </v>
   <v type="int" >       64 </v>
   <v type="int" >       65 </v>
   <v type="int" >       66 </v>
   <v type="int" >       67 </v>
   <v type="int" >       68 </v>
   <v type="int" >       69 </v>
   <v type="int" >       70 </v>
   <v type="int" >       71 </v>
   <v type="int" >       72 </v>
   <v type="int" >       73 </v>
   <v type="int" >       74 </v>
   <v type="int" >       75 </v>
   <v type="int" >       76 </v>
   <v type="int" >       77 </v>
   <v type="int" >       78 </v>
   <v type="int" >       79 </v>
   <v type="int" >       80 </v>
   <v type="int" >       81 </v>
   <v type="int" >       82 </v>
   <v type="int" >       83 </v>
   <v type="int" >       84 </v>
   <v type="int" >       85 </v>
   <v type="int" >       86 </v>
   <v type="int" >       87 </v>
   <v type="int" >       88 </v>
   <v type="int" >       89 </v>
   <v type="int" >       90 </v>
  </varray>
 </primitive_cell>
 <kpoints>
  <generation param="Monkhorst-Pack">
   <v type="int" name="divisions">       3        3        1 </v>
   <v name="usershift">      0.00000000       0.00000000       0.00000000 </v>
   <v name="genvec1">      0.33333333      -0.00000000       0.00000000 </v>
   <v name="genvec2">      0.00000000       0.33333333       0.00000000 </v>
   <v name="genvec3">      0.00000000       0.00000000       1.00000000 </v>
   <v name="shift">      0.00000000       0.00000000       0.00000000 </v>
  </generation>
  <varray name="kpointlist" >
   <v>       0.00000000       0.00000000       0.00000000 </v>
   <v>       0.33333333      -0.00000000       0.00000000 </v>
   <v>      -0.33333333       0.33333333       0.00000000 </v>
   <v>       0.33333333       0.33333333       0.00000000 </v>
  </varray>
  <varray name="weights" >
   <v>       0.11111111 </v>
   <v>       0.44444444 </v>
   <v>       0.22222222 </v>
   <v>       0.22222222 </v>
  </varray>
 </kpoints>
 <parameters>
  <separator name="general" >
   <i type="string" name="SYSTEM">unknown system</i>
   <i type="logical" name="LCOMPAT"> F  </i>
  </separator>
  <separator name="electronic" >
   <i type="string" name="PREC">accura</i>
   <i name="ENMAX">    520.00000000</i>
   <i name="ENAUG">    605.39200000</i>
   <i name="EDIFF">      0.00000100</i>
   <i type="int" name="IALGO">    38</i>
   <i type="int" name="IWAVPR">    11</i>
   <i type="int" name="NBANDS">   480</i>
   <i type="int" name="NBANDSLOW">    -1</i>
   <i type="int" name="NBANDSHIGH">    -1</i>
   <i name="NELECT">    684.00000000</i>
   <i type="int" name="TURBO">     0</i>
   <i type="int" name="IRESTART">     0</i>
   <i type="int" name="NREBOOT">     0</i>
   <i type="int" name="NMIN">     0</i>
   <i name="EREF">      0.00000000</i>
   <separator name="electronic smearing" >
    <i type="int" name="ISMEAR">     0</i>
    <i name="SIGMA">      0.05000000</i>
    <i name="KSPACING">      0.50000000</i>
    <i type="logical" name="KGAMMA"> T  </i>
    <i type="logical" name="KBLOWUP"> T  </i>
   </separator>
   <separator name="electronic projectors" >
    <i type="logical" name="LREAL"> F  </i>
    <v name="ROPT">      0.00000000      0.00000000      0.00000000</v>
    <i type="int" name="LMAXPAW">  -100</i>
    <i type="int" name="LMAXMIX">     6</i>
    <i type="logical" name="NLSPLINE"> F  </i>
   </separator>
   <separator name="electronic startup" >
    <i type="int" name="ISTART">     0</i>
    <i type="int" name="ICHARG">     2</i>
    <i type="int" name="INIWAV">     1</i>
   </separator>
   <separator name="electronic spin" >
    <i type="int" name="ISPIN">     2</i>
    <i type="logical" name="LNONCOLLINEAR"> F  </i>
    <v name="MAGMOM">      0.60000000      0.60000000      0.60000000      0.60000000      0.60000000      0.60000000      1.00000000      1.00000000      1.00000000      1.00000000      1.00000000      1.00000000      1.00000000      1.00000000      1.00000000      1.00000000      1.00000000      1.00000000      1.00000000      1.00000000
      1.00000000      1.00000000      1.00000000      1.00000000      1.00000000      1.00000000      1.00000000      0.60000000      0.60000000      0.60000000      0.60000000      0.60000000      0.60000000      0.60000000      0.60000000      0.60000000      0.60000000      0.60000000      0.60000000      0.60000000
      0.60000000      0.60000000      0.60000000      0.60000000      0.60000000      0.60000000      0.60000000      0.60000000      0.60000000      0.60000000      0.60000000      0.60000000      0.60000000      0.60000000      0.60000000      0.60000000      0.60000000      0.60000000      0.60000000      0.60000000
      0.60000000      0.60000000      0.60000000      0.60000000      0.60000000      0.60000000      0.60000000      0.60000000      0.60000000      0.60000000      0.60000000      0.60000000      0.60000000      0.60000000      0.60000000      0.60000000      0.60000000      0.60000000      0.60000000      0.60000000
      0.60000000      0.60000000      0.60000000      0.60000000      0.60000000      0.60000000      0.60000000      0.60000000      0.60000000      0.60000000</v>
    <i name="NUPDOWN">     -1.00000000</i>
    <i type="logical" name="LSORBIT"> F  </i>
    <v name="SAXIS">      0.00000000      0.00000000      1.00000000</v>
    <i type="logical" name="LSPIRAL"> F  </i>
    <v name="QSPIRAL">      0.00000000      0.00000000      0.00000000</v>
    <i type="logical" name="LZEROZ"> F  </i>
   </separator>
   <separator name="electronic exchange-correlation" >
    <i type="logical" name="LASPH"> T  </i>
   </separator>
   <separator name="electronic convergence" >
    <i type="int" name="NELM">    90</i>
    <i type="int" name="NELMDL">     0</i>
    <i type="int" name="NELMIN">     6</i>
    <i name="ENINI">    520.00000000</i>
    <separator name="electronic convergence detail" >
     <i type="logical" name="LDIAG"> T  </i>
     <i type="logical" name="LSUBROT"> F  </i>
     <i name="WEIMIN">      0.00100000</i>
     <i name="EBREAK">      0.00000000</i>
     <i name="DEPER">      0.30000000</i>
     <i type="int" name="NRMM">     4</i>
     <i name="TIME">      0.40000000</i>
    </separator>
   </separator>
   <separator name="electronic mixer" >
    <i name="AMIX">      0.40000000</i>
    <i name="BMIX">      1.00000000</i>
    <i name="AMIN">      0.10000000</i>
    <i name="AMIX_MAG">      1.60000000</i>
    <i name="BMIX_MAG">      1.00000000</i>
    <separator name="electronic mixer details" >
     <i type="int" name="IMIX">     4</i>
     <i type="logical" name="MIXFIRST"> F  </i>
     <i type="int" name="MAXMIX">   -45</i>
     <i name="WC">    100.00000000</i>
     <i type="int" name="INIMIX">     1</i>
     <i type="int" name="MIXPRE">     1</i>
     <i type="int" name="MREMOVE">     5</i>
    </separator>
   </separator>
   <separator name="electronic dipolcorrection" >
    <i type="logical" name="LDIPOL"> F  </i>
    <i type="logical" name="LMONO"> F  </i>
    <i type="int" name="IDIPOL">     0</i>
    <i name="EPSILON">      1.00000000</i>
    <v name="DIPOL">   -100.00000000   -100.00000000   -100.00000000</v>
    <i name="EFIELD">      0.00000000</i>
    <i type="logical" name="LVACPOTAV"> F  </i>
   </separator>
  </separator>
  <separator name="grids" >
   <i type="int" name="NGX">    90</i>
   <i type="int" name="NGY">    90</i>
   <i type="int" name="NGZ">   160</i>
   <i type="int" name="NGXF">   180</i>
   <i type="int" name="NGYF">   180</i>
   <i type="int" name="NGZF">   320</i>
   <i type="logical" name="ADDGRID"> T  </i>
  </separator>
  <separator name="ionic" >
   <i type="int" name="NSW">   300</i>
   <i type="int" name="IBRION">     2</i>
   <i type="int" name="MDALGO">     0</i>
   <i type="int" name="ISIF">     2</i>
   <i name="PSTRESS">      0.00000000</i>
   <i name="EDIFFG">     -0.02000000</i>
   <i type="int" name="NFREE">     1</i>
   <i name="POTIM">      0.50000000</i>
   <i name="SMASS">     -3.00000000</i>
   <i name="SCALEE">      1.00000000</i>
  </separator>
  <separator name="ionic md" >
   <i name="TEBEG">      0.00010000</i>
   <i name="TEEND">      0.00010000</i>
   <i type="int" name="NBLOCK">     1</i>
   <i type="int" name="KBLOCK">   300</i>
   <i type="int" name="NPACO">   256</i>
   <i name="APACO">     10.00000000</i>
  </separator>
  <separator name="symmetry" >
   <i type="int" name="ISYM">     2</i>
   <i name="SYMPREC">      0.00001000</i>
  </separator>
  <separator name="dos" >
   <i type="int" name="LORBIT">     0</i>
   <v name="RWIGS">     -1.00000000     -1.00000000     -1.00000000</v>
   <i type="int" name="NEDOS">   301</i>
   <i name="EMIN">     10.00000000</i>
   <i name="EMAX">    -10.00000000</i>
   <i name="EFERMI">      0.00000000</i>
  </separator>
  <separator name="writing" >
   <i type="int" name="NWRITE">     2</i>
   <i type="logical" name="LWAVE"> F  </i>
   <i type="logical" name="LDOWNSAMPLE"> F  </i>
   <i type="logical" name="LCHARG"> F  </i>
   <i type="logical" name="LPARD"> F  </i>
   <i type="logical" name="LVTOT"> F  </i>
   <i type="logical" name="LVHAR"> F  </i>
   <i type="logical" name="LELF"> F  </i>
   <i type="logical" name="LOPTICS"> F  </i>
   <v name="STM">      0.00000000      0.00000000      0.00000000      0.00000000      0.00000000      0.00000000      0.00000000</v>
  </separator>
  <separator name="performance" >
   <i type="int" name="NPAR">    48</i>
   <i type="int" name="NSIM">     4</i>
   <i type="int" name="NBLK">    -1</i>
   <i type="logical" name="LPLANE"> T  </i>
   <i type="logical" name="LSCALAPACK"> T  </i>
   <i type="logical" name="LSCAAWARE"> T  </i>
   <i type="logical" name="LSCALU"> F  </i>
   <i type="logical" name="LASYNC"> F  </i>
   <i type="logical" name="LORBITALREAL"> F  </i>
  </separator>
  <separator name="miscellaneous" >
   <i type="int" name="IDIOT">     3</i>
   <i type="int" name="PHON_NSTRUCT">    -1</i>
   <i type="logical" name="LMUSIC"> F  </i>
   <v name="POMASS">    192.22000000    140.11500000     16.00000000</v>
   <v name="DARWINR">      0.00000000      0.00000000      0.00000000</v>
   <v name="DARWINV">      1.00000000      1.00000000      1.00000000</v>
   <i type="logical" name="LCORR"> T  </i>
  </separator>
  <i type="logical" name="GGA_COMPAT"> T  </i>
  <i type="logical" name="LBERRY"> F  </i>
  <i type="int" name="ICORELEVEL">     0</i>
  <i type="logical" name="LDAU"> T  </i>
  <v type="int" name="LDAUTYPE">     2</v>
  <v type="int" name="LDAUL">     2</v>
  <v name="LDAUU">      2.00000000</v>
  <v name="LDAUJ">      0.00000000</v>
  <i type="int" name="LDAUPRINT">     0</i>
  <i type="int" name="I_CONSTRAINED_M">     0</i>
  <separator name="electronic exchange-correlation" >
   <i type="string" name="GGA    ">PE</i>
   <i type="string" name="XC_C">1</i>
   <i type="int" name="VOSKOWN">     0</i>
   <i type="logical" name="LHFCALC"> F  </i>
   <i type="string" name="PRECFOCK"></i>
   <i type="logical" name="LSYMGRAD"> F  </i>
   <i type="logical" name="LHFONE"> F  </i>
   <i type="logical" name="LRHFCALC"> F  </i>
   <i type="logical" name="LTHOMAS"> F  </i>
   <i type="logical" name="LMODELHF"> F  </i>
   <i type="logical" name="LFOCKACE"> F  </i>
   <i name="ENCUT4O">     -1.00000000</i>
   <i type="int" name="EXXOEP">     0</i>
   <i type="int" name="FOURORBIT">     0</i>
   <i name="AEXX">      0.00000000</i>
   <i name="HFALPHA">      0.00000000</i>
   <i name="MCALPHA">      0.00000000</i>
   <i name="ALDAX">      1.00000000</i>
   <i name="AGGAX">      1.00000000</i>
   <i name="AMGGAX">      1.00000000</i>
   <i name="ALDAC">      1.00000000</i>
   <i name="AGGAC">      1.00000000</i>
   <i name="AMGGAC">      1.00000000</i>
   <i type="int" name="NKREDX">     1</i>
   <i type="int" name="NKREDY">     1</i>
   <i type="int" name="NKREDZ">     1</i>
   <i type="logical" name="SHIFTRED"> F  </i>
   <i type="logical" name="ODDONLY"> F  </i>
   <i type="logical" name="EVENONLY"> F  </i>
   <i type="int" name="LMAXFOCK">     0</i>
   <i type="int" name="NMAXFOCKAE">     0</i>
   <i type="logical" name="LFOCKAEDFT"> F  </i>
   <i name="HFSCREEN">      0.00000000</i>
   <i name="HFSCREENC">      0.00000000</i>
   <i type="int" name="NBANDSGWLOW">     0</i>
  </separator>
  <separator name="vdW DFT" >
   <i type="logical" name="LUSE_VDW"> F  </i>
   <i type="int" name="IVDW_NL">    -1</i>
   <i type="logical" name="LSPIN_VDW"> F  </i>
   <i name="ZAB_VDW">     -0.84910000</i>
   <i name="GAMMA_VDW">      1.39626340</i>
   <i name="ALPHA_VDW">      0.00000000</i>
   <i name="PARAM1">      0.12340000</i>
   <i name="PARAM2">      1.00000000</i>
   <i name="BPARAM">      6.30000000</i>
   <i name="CPARAM">      0.00930000</i>
  </separator>
  <separator name="model GW" >
   <i type="int" name="MODEL_GW">     0</i>
   <i name="MODEL_EPS0">     16.34690435</i>
   <i name="MODEL_ALPHA">      1.00000000</i>
  </separator>
  <separator name="linear response parameters" >
   <i type="logical" name="LEPSILON"> F  </i>
   <i type="logical" name="LRPA"> F  </i>
   <i type="logical" name="LNABLA"> F  </i>
   <i type="logical" name="LVEL"> F  </i>
   <i name="CSHIFT">      0.10000000</i>
   <i name="OMEGAMAX">     -1.00000000</i>
   <i name="DEG_THRESHOLD">      0.00200000</i>
   <i name="RTIME">     -0.10000000</i>
   <i name="WPLASMAI">      0.00000000</i>
   <v name="DFIELD">      0.00000000      0.00000000      0.00000000</v>
   <v name="WPLASMA">      0.00000000      0.00000000      0.00000000      0.00000000      0.00000000      0.00000000      0.00000000      0.00000000      0.00000000</v>
  </separator>
  <separator name="orbital magnetization" >
   <i type="logical" name="NUCIND"> F  </i>
   <v name="MAGPOS">      0.00000000      0.00000000      0.00000000</v>
   <i type="logical" name="LNICSALL"> T  </i>
   <i type="logical" name="ORBITALMAG"> F  </i>
   <i type="logical" name="LMAGBLOCH"> F  </i>
   <i type="logical" name="LCHIMAG"> F  </i>
   <i type="logical" name="LGAUGE"> T  </i>
   <i type="int" name="MAGATOM">     0</i>
   <v name="MAGDIPOL">      0.00000000      0.00000000      0.00000000</v>
   <v name="AVECCONST">      0.00000000      0.00000000      0.00000000</v>
  </separator>
  <separator name="response functions" >
   <i type="logical" name="LALL_IN_ONE"> F  </i>
   <i type="int" name="IALL_IN_ONE">    -1</i>
   <i type="int" name="NBANDS_WAVE">    -1</i>
   <i type="logical" name="LFINITE_TEMPERATURE"> F  </i>
   <i type="logical" name="LADDER"> F  </i>
   <i type="logical" name="LRPAFORCE"> F  </i>
   <i type="logical" name="LFXC"> F  </i>
   <i type="logical" name="LHARTREE"> T  </i>
   <i type="int" name="IBSE">     0</i>
   <v type="int" name="KPOINT">    -1     0     0     0</v>
   <i type="logical" name="LTCTC"> F  </i>
   <i type="logical" name="LTCTE"> F  </i>
   <i type="logical" name="LTETE"> F  </i>
   <i type="logical" name="LTRIPLET"> F  </i>
   <i type="logical" name="LFXCEPS"> F  </i>
   <i type="logical" name="LFXHEG"> F  </i>
   <i type="int" name="NATURALO">     2</i>
   <i type="logical" name="LHOLEGF"> F  </i>
   <i type="logical" name="L2ORDER"> F  </i>
   <i type="logical" name="LDMP1"> F  </i>
   <i type="logical" name="LMP2LT"> F  </i>
   <i type="logical" name="LSMP2LT"> F  </i>
   <i type="logical" name="LGWLF"> F  </i>
   <i name="ENCUTGW">     -1.60000002</i>
   <i name="ENCUTGWSOFT">     -1.60000002</i>
   <i name="ENCUTLF">     -1.00000000</i>
   <i type="logical" name="ESF_SPLINES"> F  </i>
   <i name="ESF_CONV">      0.01000000</i>
   <i type="int" name="ESF_NINTER">    15</i>
   <i type="int" name="LMAXMP2">    -1</i>
   <i name="SCISSOR">      0.00000000</i>
   <i type="int" name="NOMEGA">     0</i>
   <i type="int" name="NOMEGAR">     0</i>
   <i type="int" name="NBANDSGW">    -1</i>
   <i type="int" name="NBANDSO">    -1</i>
   <i type="int" name="NBANDSV">    -1</i>
   <i type="int" name="NELMGW">     1</i>
   <i type="int" name="NELMHF">     1</i>
   <i type="int" name="DIM">     3</i>
   <i type="int" name="IESPILON">     4</i>
   <i type="int" name="ANTIRES">     0</i>
   <i name="OMEGAMAX">    -30.00000000</i>
   <i name="OMEGAMIN">    -30.00000000</i>
   <i name="OMEGATL">   -200.00000000</i>
   <i type="int" name="OMEGAGRID">     0</i>
   <i name="CSHIFT">     -0.10000000</i>
   <i type="logical" name="LSELFENERGY"> F  </i>
   <i type="logical" name="LSPECTRAL"> F  </i>
   <i type="logical" name="LSPECTRALGW"> F  </i>
   <i type="logical" name="LSINGLES"> F  </i>
   <i type="logical" name="LFERMIGW"> F  </i>
   <i type="logical" name="ODDONLYGW"> F  </i>
   <i type="logical" name="EVENONLYGW"> F  </i>
   <i type="int" name="NKREDLFX">     1</i>
   <i type="int" name="NKREDLFY">     1</i>
   <i type="int" name="NKREDLFZ">     1</i>
   <i type="int" name="MAXMEM">  2800</i>
   <i type="int" name="TELESCOPE">     0</i>
   <i type="int" name="NTAUPAR">    -1</i>
   <i type="int" name="NOMEGAPAR">    -1</i>
   <i name="DAMP_NEWTON">      0.80000001</i>
   <i name="LAMBDA">      1.00000000</i>
  </separator>
  <separator name="External order field" >
   <i name="OFIELD_KAPPA">      0.00000000</i>
   <v name="OFIELD_K">      0.00000000      0.00000000      0.00000000</v>
   <i name="OFIELD_Q6_NEAR">      0.00000000</i>
   <i name="OFIELD_Q6_FAR">      0.00000000</i>
   <i name="OFIELD_A">      0.00000000</i>
  </separator>
  <separator name="optional k-points parameters" >
   <i type="int" name="KPOINTS_OPT_MODE">     1</i>
   <i type="logical" name="LKPOINTS_OPT"> F  </i>
  </separator>
 </parameters>
 <atominfo>
  <atoms>      90 </atoms>
  <types>       3 </types>
  <array name="atoms" >
   <dimension dim="1">ion</dimension>
   <field type="string">element</field>
   <field type="int">atomtype</field>
   <set>
    <rc><c>Ir</c><c>   1</c></rc>
    <rc><c>Ir</c><c>   1</c></rc>
    <rc><c>Ir</c><c>   1</c></rc>
    <rc><c>Ir</c><c>   1</c></rc>
    <rc><c>Ir</c><c>   1</c></rc>
    <rc><c>Ir</c><c>   1</c></rc>
    <rc><c>Ce</c><c>   2</c></rc>
    <rc><c>Ce</c><c>   2</c></rc>
    <rc><c>Ce</c><c>   2</c></rc>
    <rc><c>Ce</c><c>   2</c></rc>
    <rc><c>Ce</c><c>   2</c></rc>
    <rc><c>Ce</c><c>   2</c></rc>
    <rc><c>Ce</c><c>   2</c></rc>
    <rc><c>Ce</c><c>   2</c></rc>
    <rc><c>Ce</c><c>   2</c></rc>
    <rc><c>Ce</c><c>   2</c></rc>
    <rc><c>Ce</c><c>   2</c></rc>
    <rc><c>Ce</c><c>   2</c></rc>
    <rc><c>Ce</c><c>   2</c></rc>
    <rc><c>Ce</c><c>   2</c></rc>
    <rc><c>Ce</c><c>   2</c></rc>
    <rc><c>Ce</c><c>   2</c></rc>
    <rc><c>Ce</c><c>   2</c></rc>
    <rc><c>Ce</c><c>   2</c></rc>
    <rc><c>Ce</c><c>   2</c></rc>
    <rc><c>Ce</c><c>   2</c></rc>
    <rc><c>Ce</c><c>   2</c></rc>
    <rc><c>O </c><c>   3</c></rc>
    <rc><c>O </c><c>   3</c></rc>
    <rc><c>O </c><c>   3</c></rc>
    <rc><c>O </c><c>   3</c></rc>
    <rc><c>O </c><c>   3</c></rc>
    <rc><c>O </c><c>   3</c></rc>
    <rc><c>O </c><c>   3</c></rc>
    <rc><c>O </c><c>   3</c></rc>
    <rc><c>O </c><c>   3</c></rc>
    <rc><c>O </c><c>   3</c></rc>
    <rc><c>O </c><c>   3</c></rc>
    <rc><c>O </c><c>   3</c></rc>
    <rc><c>O </c><c>   3</c></rc>
    <rc><c>O </c><c>   3</c></rc>
    <rc><c>O </c><c>   3</c></rc>
    <rc><c>O </c><c>   3</c></rc>
    <rc><c>O </c><c>   3</c></rc>
    <rc><c>O </c><c>   3</c></rc>
    <rc><c>O </c><c>   3</c></rc>
    <rc><c>O </c><c>   3</c></rc>
    <rc><c>O </c><c>   3</c></rc>
    <rc><c>O </c><c>   3</c></rc>
    <rc><c>O </c><c>   3</c></rc>
    <rc><c>O </c><c>   3</c></rc>
    <rc><c>O </c><c>   3</c></rc>
    <rc><c>O </c><c>   3</c></rc>
    <rc><c>O </c><c>   3</c></rc>
    <rc><c>O </c><c>   3</c></rc>
    <rc><c>O </c><c>   3</c></rc>
    <rc><c>O </c><c>   3</c></rc>
    <rc><c>O </c><c>   3</c></rc>
    <rc><c>O </c><c>   3</c></rc>
    <rc><c>O </c><c>   3</c></rc>
    <rc><c>O </c><c>   3</c></rc>
    <rc><c>O </c><c>   3</c></rc>
    <rc><c>O </c><c>   3</c></rc>
    <rc><c>O </c><c>   3</c></rc>
    <rc><c>O </c><c>   3</c></rc>
    <rc><c>O </c><c>   3</c></rc>
    <rc><c>O </c><c>   3</c></rc>
    <rc><c>O </c><c>   3</c></rc>
    <rc><c>O </c><c>   3</c></rc>
    <rc><c>O </c><c>   3</c></rc>
    <rc><c>O </c><c>   3</c></rc>
    <rc><c>O </c><c>   3</c></rc>
    <rc><c>O </c><c>   3</c></rc>
    <rc><c>O </c><c>   3</c></rc>
    <rc><c>O </c><c>   3</c></rc>
    <rc><c>O </c><c>   3</c></rc>
    <rc><c>O </c><c>   3</c></rc>
    <rc><c>O </c><c>   3</c></rc>
    <rc><c>O </c><c>   3</c></rc>
    <rc><c>O </c><c>   3</c></rc>
    <rc><c>O </c><c>   3</c></rc>
    <rc><c>O </c><c>   3</c></rc>
    <rc><c>O </c><c>   3</c></rc>
    <rc><c>O </c><c>   3</c></rc>
    <rc><c>O </c><c>   3</c></rc>
    <rc><c>O </c><c>   3</c></rc>
    <rc><c>O </c><c>   3</c></rc>
    <rc><c>O </c><c>   3</c></rc>
    <rc><c>O </c><c>   3</c></rc>
    <rc><c>O </c><c>   3</c></rc>
   </set>
  </array>
  <array name="atomtypes" >
   <dimension dim="1">type</dimension>
   <field type="int">atomspertype</field>
   <field type="string">element</field>
   <field>mass</field>
   <field>valence</field>
   <field type="string">pseudopotential</field>
   <set>
    <rc><c>   6</c><c>Ir</c><c>    192.22000000</c><c>      9.00000000</c><c>  PAW_PBE Ir 06Sep2000                  </c></rc>
    <rc><c>  21</c><c>Ce</c><c>    140.11500000</c><c>     12.00000000</c><c>  PAW_PBE Ce 23Dec2003                  </c></rc>
    <rc><c>  63</c><c>O </c><c>     16.00000000</c><c>      6.00000000</c><c>  PAW_PBE O 08Apr2002                   </c></rc>
   </set>
  </array>
 </atominfo>
 <structure name="initialpos" >
  <crystal>
   <varray name="basis" >
    <v>      11.59820000       0.00000000       0.00000000 </v>
    <v>      -5.79910000      10.04433584       0.00000000 </v>
    <v>       0.00000000       0.00000000      21.04820000 </v>
   </varray>
   <i name="volume">   2452.03565189 </i>
   <varray name="rec_basis" >
    <v>       0.08622028       0.04977930       0.00000000 </v>
    <v>       0.00000000       0.09955860       0.00000000 </v>
    <v>       0.00000000       0.00000000       0.04751000 </v>
   </varray>
  </crystal>
  <varray name="positions" >
   <v>       0.01288581       0.98711419       0.47544940 </v>
   <v>       0.74885073       0.97876428       0.44815154 </v>
   <v>       0.02123572       0.25114927       0.44815154 </v>
   <v>       0.34511232       0.30755772       0.44389590 </v>
   <v>       0.31696110       0.68303890       0.47077537 </v>
   <v>       0.69244228       0.65488768       0.44389590 </v>
   <v>       0.21741786       0.10711109       0.30665307 </v>
   <v>       0.11111000       0.22222000       0.15999000 </v>
   <v>       0.32803094       0.01091681       0.46143500 </v>
   <v>       0.55350581       0.11328923       0.31742103 </v>
   <v>       0.44444000       0.22222000       0.15999000 </v>
   <v>       0.88820501       0.11179499       0.30514433 </v>
   <v>       0.77778000       0.22222000       0.15999000 </v>
   <v>       0.21862411       0.44020651       0.31427904 </v>
   <v>       0.11111000       0.55556000       0.15999000 </v>
   <v>       0.55644761       0.44355239       0.30670625 </v>
   <v>       0.44444000       0.55556000       0.15999000 </v>
   <v>       0.65690219       0.34309781       0.46304362 </v>
   <v>       0.88671077       0.44649419       0.31742103 </v>
   <v>       0.77778000       0.55556000       0.15999000 </v>
   <v>       0.98908319       0.67196906       0.46143500 </v>
   <v>       0.21943359       0.78056641       0.31252358 </v>
   <v>       0.11111000       0.88889000       0.15999000 </v>
   <v>       0.55979349       0.78137589       0.31427904 </v>
   <v>       0.44444000       0.88889000       0.15999000 </v>
   <v>       0.89288891       0.78258214       0.30665307 </v>
   <v>       0.77778000       0.88889000       0.15999000 </v>
   <v>       0.00000000       0.00000000       0.12250000 </v>
   <v>       0.11856339       0.23684609       0.27603617 </v>
   <v>       0.19719036       0.10449913       0.42901202 </v>
   <v>       0.11111000       0.22222000       0.04751000 </v>
   <v>       0.07023891       0.16637800       0.51358775 </v>
   <v>       0.00173791       0.99826209       0.31900965 </v>
   <v>       0.22222000       0.11111000       0.19748000 </v>
   <v>       0.33333000       0.00000000       0.12250000 </v>
   <v>       0.44450080       0.21999495       0.27412739 </v>
   <v>       0.53337423       0.11496237       0.42913599 </v>
   <v>       0.44444000       0.22222000       0.04751000 </v>
   <v>       0.41954731       0.23452008       0.49658177 </v>
   <v>       0.32653200       0.00430078       0.35299411 </v>
   <v>       0.55556000       0.11111000       0.19748000 </v>
   <v>       0.66667000       0.00000000       0.12250000 </v>
   <v>       0.77359705       0.22640295       0.27862218 </v>
   <v>       0.93256697       0.06743303       0.41462531 </v>
   <v>       0.77778000       0.22222000       0.04751000 </v>
   <v>       0.83120994       0.16879006       0.47055048 </v>
   <v>       0.67569827       0.00348814       0.35984982 </v>
   <v>       0.88889000       0.11111000       0.19748000 </v>
   <v>       0.00000000       0.33333000       0.12250000 </v>
   <v>       0.11800478       0.55842051       0.28402406 </v>
   <v>       0.20611368       0.36892922       0.43277807 </v>
   <v>       0.11111000       0.55556000       0.04751000 </v>
   <v>       0.16013815       0.57868113       0.50840418 </v>
   <v>       0.99651186       0.32430173       0.35984982 </v>
   <v>       0.22222000       0.44444000       0.19748000 </v>
   <v>       0.33333000       0.33333000       0.12250000 </v>
   <v>       0.43947828       0.56052172       0.28067215 </v>
   <v>       0.53503662       0.46496338       0.43060084 </v>
   <v>       0.44444000       0.55556000       0.04751000 </v>
   <v>       0.40395872       0.59604128       0.48736535 </v>
   <v>       0.33906216       0.32876524       0.35229585 </v>
   <v>       0.55556000       0.44444000       0.19748000 </v>
   <v>       0.66667000       0.33333000       0.12250000 </v>
   <v>       0.78000505       0.55549920       0.27412739 </v>
   <v>       0.88503763       0.46662577       0.42913599 </v>
   <v>       0.77778000       0.55556000       0.04751000 </v>
   <v>       0.76547992       0.58045269       0.49658177 </v>
   <v>       0.65784121       0.34215879       0.35082631 </v>
   <v>       0.88889000       0.44444000       0.19748000 </v>
   <v>       0.00000000       0.66667000       0.12250000 </v>
   <v>       0.11799829       0.88200171       0.27323662 </v>
   <v>       0.21850749       0.78149251       0.42969420 </v>
   <v>       0.11111000       0.88889000       0.04751000 </v>
   <v>       0.10544868       0.89455132       0.50897799 </v>
   <v>       0.99569922       0.67346800       0.35299411 </v>
   <v>       0.22222000       0.77778000       0.19748000 </v>
   <v>       0.33333000       0.66667000       0.12250000 </v>
   <v>       0.44157949       0.88199522       0.28402406 </v>
   <v>       0.63107078       0.79388632       0.43277807 </v>
   <v>       0.44444000       0.88889000       0.04751000 </v>
   <v>       0.42131887       0.83986185       0.50840418 </v>
   <v>       0.34007149       0.65992851       0.38209866 </v>
   <v>       0.55556000       0.77778000       0.19748000 </v>
   <v>       0.66667000       0.66667000       0.12250000 </v>
   <v>       0.76315391       0.88143661       0.27603617 </v>
   <v>       0.89550087       0.80280964       0.42901202 </v>
   <v>       0.77778000       0.88889000       0.04751000 </v>
   <v>       0.83362200       0.92976109       0.51358775 </v>
   <v>       0.67123476       0.66093784       0.35229585 </v>
   <v>       0.88889000       0.77778000       0.19748000 </v>
  </varray>
  <varray name="selective"  type="logical" >
   <v type="logical" >  T  T  T </v>
   <v type="logical" >  T  T  T </v>
   <v type="logical" >  T  T  T </v>
   <v type="logical" >  T  T  T </v>
   <v type="logical" >  T  T  T </v>
   <v type="logical" >  T  T  T </v>
   <v type="logical" >  T  T  T </v>
   <v type="logical" >  F  F  F </v>
   <v type="logical" >  T  T  T </v>
   <v type="logical" >  T  T  T </v>
   <v type="logical" >  F  F  F </v>
   <v type="logical" >  T  T  T </v>
   <v type="logical" >  F  F  F </v>
   <v type="logical" >  T  T  T </v>
   <v type="logical" >  F  F  F </v>
   <v type="logical" >  T  T  T </v>
   <v type="logical" >  F  F  F </v>
   <v type="logical" >  T  T  T </v>
   <v type="logical" >  T  T  T </v>
   <v type="logical" >  F  F  F </v>
   <v type="logical" >  T  T  T </v>
   <v type="logical" >  T  T  T </v>
   <v type="logical" >  F  F  F </v>
   <v type="logical" >  T  T  T </v>
   <v type="logical" >  F  F  F </v>
   <v type="logical" >  T  T  T </v>
   <v type="logical" >  F  F  F </v>
   <v type="logical" >  F  F  F </v>
   <v type="logical" >  T  T  T </v>
   <v type="logical" >  T  T  T </v>
   <v type="logical" >  F  F  F </v>
   <v type="logical" >  T  T  T </v>
   <v type="logical" >  T  T  T </v>
   <v type="logical" >  F  F  F </v>
   <v type="logical" >  F  F  F </v>
   <v type="logical" >  T  T  T </v>
   <v type="logical" >  T  T  T </v>
   <v type="logical" >  F  F  F </v>
   <v type="logical" >  T  T  T </v>
   <v type="logical" >  T  T  T </v>
   <v type="logical" >  F  F  F </v>
   <v type="logical" >  F  F  F </v>
   <v type="logical" >  T  T  T </v>
   <v type="logical" >  T  T  T </v>
   <v type="logical" >  F  F  F </v>
   <v type="logical" >  T  T  T </v>
   <v type="logical" >  T  T  T </v>
   <v type="logical" >  F  F  F </v>
   <v type="logical" >  F  F  F </v>
   <v type="logical" >  T  T  T </v>
   <v type="logical" >  T  T  T </v>
   <v type="logical" >  F  F  F </v>
   <v type="logical" >  T  T  T </v>
   <v type="logical" >  T  T  T </v>
   <v type="logical" >  F  F  F </v>
   <v type="logical" >  F  F  F </v>
   <v type="logical" >  T  T  T </v>
   <v type="logical" >  T  T  T </v>
   <v type="logical" >  F  F  F </v>
   <v type="logical" >  T  T  T </v>
   <v type="logical" >  T  T  T </v>
   <v type="logical" >  F  F  F </v>
   <v type="logical" >  F  F  F </v>
   <v type="logical" >  T  T  T </v>
   <v type="logical" >  T  T  T </v>
   <v type="logical" >  F  F  F </v>
   <v type="logical" >  T  T  T </v>
   <v type="logical" >  T  T  T </v>
   <v type="logical" >  F  F  F </v>
   <v type="logical" >  F  F  F </v>
   <v type="logical" >  T  T  T </v>
   <v type="logical" >  T  T  T </v>
   <v type="logical" >  F  F  F </v>
   <v type="logical" >  T  T  T </v>
   <v type="logical" >  T  T  T </v>
   <v type="logical" >  F  F  F </v>
   <v type="logical" >  F  F  F </v>
   <v type="logical" >  T  T  T </v>
   <v type="logical" >  T  T  T </v>
   <v type="logical" >  F  F  F </v>
   <v type="logical" >  T  T  T </v>
   <v type="logical" >  T  T  T </v>
   <v type="logical" >  F  F  F </v>
   <v type="logical" >  F  F  F </v>
   <v type="logical" >  T  T  T </v>
   <v type="logical" >  T  T  T </v>
   <v type="logical" >  F  F  F </v>
   <v type="logical" >  T  T  T </v>
   <v type="logical" >  T  T  T </v>
   <v type="logical" >  F  F  F </v>
  </varray>
  <nose>
   <v>      -3.00000000       0.00000000       0.00010000       0.00010000 </v>
  </nose>
 </structure>
 <calculation>
  <scstep>
   <time name="dav">   16.77   16.82</time>
   <time name="total">   18.20   18.29</time>
   <energy>
    <i name="alphaZ">   1646.47971768 </i>
    <i name="ewald"> 126613.02108303 </i>
    <i name="hartreedc">-175563.77686542 </i>
    <i name="XCdc">   1743.96439406 </i>
    <i name="pawpsdc">  43004.07676644 </i>
    <i name="pawaedc"> -42332.39009753 </i>
    <i name="eentropy">     -0.03152226 </i>
    <i name="bandstr">   2562.62020452 </i>
    <i name="atom">  52924.17385108 </i>
    <i name="e_fr_energy">  10598.13753160 </i>
    <i name="e_wo_entrp">  10598.16905386 </i>
    <i name="e_0_energy">  10598.15329273 </i>
   </energy>
  </scstep>
  <scstep>
   <time name="dav">   18.15   18.16</time>
   <time name="total">   18.16   18.17</time>
   <energy>
    <i name="e_fr_energy">   2708.74057206 </i>
    <i name="e_wo_entrp">   2708.91155024 </i>
    <i name="e_0_energy">   2708.82606115 </i>
   </energy>
  </scstep>
  <scstep>
   <time name="dav">   20.92   20.94</time>
   <time name="total">   20.93   20.94</time>
   <energy>
    <i name="e_fr_energy">   -426.54438395 </i>
    <i name="e_wo_entrp">   -426.51940702 </i>
    <i name="e_0_energy">   -426.53189548 </i>
   </energy>
  </scstep>
  <scstep>
   <time name="dav">   23.26   23.27</time>
   <time name="total">   23.26   23.28</time>
   <energy>
    <i name="e_fr_energy">   -829.63637502 </i>
    <i name="e_wo_entrp">   -829.61667464 </i>
    <i name="e_0_energy">   -829.62652483 </i>
   </energy>
  </scstep>
  <scstep>
   <time name="dav">   26.21   26.22</time>
   <time name="total">   27.74   27.76</time>
   <energy>
    <i name="e_fr_energy">   -847.32353747 </i>
    <i name="e_wo_entrp">   -847.30870198 </i>
    <i name="e_0_energy">   -847.31611973 </i>
   </energy>
  </scstep>
  <scstep>
   <time name="dav">   26.10   26.11</time>
   <time name="total">   28.93   28.94</time>
   <energy>
    <i name="e_fr_energy">  -1402.21663927 </i>
    <i name="e_wo_entrp">  -1402.07227334 </i>
    <i name="e_0_energy">  -1402.14445631 </i>
   </energy>
  </scstep>
  <scstep>
   <time name="dav">   22.80   22.82</time>
   <time name="total">   25.64   25.65</time>
   <energy>
    <i name="e_fr_energy">  -1207.31991635 </i>
    <i name="e_wo_entrp">  -1207.20006064 </i>
    <i name="e_0_energy">  -1207.25998850 </i>
   </energy>
  </scstep>
  <scstep>
   <time name="dav">   26.16   26.17</time>
   <time name="total">   28.97   28.99</time>
   <energy>
    <i name="e_fr_energy">  -1291.01155988 </i>
    <i name="e_wo_entrp">  -1290.95195241 </i>
    <i name="e_0_energy">  -1290.98175615 </i>
   </energy>
  </scstep>
  <scstep>
   <time name="dav">   23.15   23.16</time>
   <time name="total">   25.99   26.01</time>
   <energy>
    <i name="e_fr_energy">  -1226.23894173 </i>
    <i name="e_wo_entrp">  -1226.18275661 </i>
    <i name="e_0_energy">  -1226.21084917 </i>
   </energy>
  </scstep>
  <scstep>
   <time name="dav">   23.61   23.63</time>
   <time name="total">   26.47   26.49</time>
   <energy>
    <i name="e_fr_energy">  -1443.69600365 </i>
    <i name="e_wo_entrp">  -1443.59548916 </i>
    <i name="e_0_energy">  -1443.64574640 </i>
   </energy>
  </scstep>
  <scstep>
   <time name="dav">   25.45   25.46</time>
   <time name="total">   28.26   28.28</time>
   <energy>
    <i name="e_fr_energy">  -1066.57604754 </i>
    <i name="e_wo_entrp">  -1066.49713261 </i>
    <i name="e_0_energy">  -1066.53659008 </i>
   </energy>
  </scstep>
  <scstep>
   <time name="dav">   24.11   24.12</time>
   <time name="total">   26.97   26.98</time>
   <energy>
    <i name="e_fr_energy">   -641.81772105 </i>
    <i name="e_wo_entrp">   -641.73117938 </i>
    <i name="e_0_energy">   -641.77445021 </i>
   </energy>
  </scstep>
  <scstep>
   <time name="dav">   25.35   25.37</time>
   <time name="total">   28.18   28.20</time>
   <energy>
    <i name="e_fr_energy">   -727.44623701 </i>
    <i name="e_wo_entrp">   -727.37496162 </i>
    <i name="e_0_energy">   -727.41059931 </i>
   </energy>
  </scstep>
  <scstep>
   <time name="dav">   23.63   23.65</time>
   <time name="total">   26.46   26.48</time>
   <energy>
    <i name="e_fr_energy">   -616.75255689 </i>
    <i name="e_wo_entrp">   -616.65746179 </i>
    <i name="e_0_energy">   -616.70500934 </i>
   </energy>
  </scstep>
  <scstep>
   <time name="dav">   26.53   26.54</time>
   <time name="total">   29.38   29.39</time>
   <energy>
    <i name="e_fr_energy">   -607.26896528 </i>
    <i name="e_wo_entrp">   -607.19905241 </i>
    <i name="e_0_energy">   -607.23400885 </i>
   </energy>
  </scstep>
  <scstep>
   <time name="dav">   22.66   22.68</time>
   <time name="total">   25.48   25.50</time>
   <energy>
    <i name="e_fr_energy">   -613.78206936 </i>
    <i name="e_wo_entrp">   -613.72102606 </i>
    <i name="e_0_energy">   -613.75154771 </i>
   </energy>
  </scstep>
  <scstep>
   <time name="dav">   25.66   25.68</time>
   <time name="total">   28.48   28.50</time>
   <energy>
    <i name="e_fr_energy">   -608.46764717 </i>
    <i name="e_wo_entrp">   -608.40096097 </i>
    <i name="e_0_energy">   -608.43430407 </i>
   </energy>
  </scstep>
  <scstep>
   <time name="dav">   25.78   25.80</time>
   <time name="total">   28.61   28.63</time>
   <energy>
    <i name="e_fr_energy">   -608.70657155 </i>
    <i name="e_wo_entrp">   -608.57810694 </i>
    <i name="e_0_energy">   -608.64233925 </i>
   </energy>
  </scstep>
  <scstep>
   <time name="dav">   21.17   21.19</time>
   <time name="total">   24.02   24.04</time>
   <energy>
    <i name="e_fr_energy">   -609.34682958 </i>
    <i name="e_wo_entrp">   -609.14100648 </i>
    <i name="e_0_energy">   -609.24391803 </i>
   </energy>
  </scstep>
  <scstep>
   <time name="dav">   22.75   22.76</time>
   <time name="total">   25.59   25.61</time>
   <energy>
    <i name="e_fr_energy">   -609.19983171 </i>
    <i name="e_wo_entrp">   -609.10615225 </i>
    <i name="e_0_energy">   -609.15299198 </i>
   </energy>
  </scstep>
  <scstep>
   <time name="dav">   26.07   26.08</time>
   <time name="total">   28.94   28.96</time>
   <energy>
    <i name="e_fr_energy">   -614.36397758 </i>
    <i name="e_wo_entrp">   -614.28216928 </i>
    <i name="e_0_energy">   -614.32307343 </i>
   </energy>
  </scstep>
  <scstep>
   <time name="dav">   25.60   25.61</time>
   <time name="total">   28.43   28.45</time>
   <energy>
    <i name="e_fr_energy">   -623.29988936 </i>
    <i name="e_wo_entrp">   -623.18779576 </i>
    <i name="e_0_energy">   -623.24384256 </i>
   </energy>
  </scstep>
  <scstep>
   <time name="dav">   23.81   23.82</time>
   <time name="total">   26.66   26.68</time>
   <energy>
    <i name="e_fr_energy">   -633.64438285 </i>
    <i name="e_wo_entrp">   -633.55883671 </i>
    <i name="e_0_energy">   -633.60160978 </i>
   </energy>
  </scstep>
  <scstep>
   <time name="dav">   25.86   25.87</time>
   <time name="total">   28.71   28.72</time>
   <energy>
    <i name="e_fr_energy">   -629.10029646 </i>
    <i name="e_wo_entrp">   -628.99824692 </i>
    <i name="e_0_energy">   -629.04927169 </i>
   </energy>
  </scstep>
  <scstep>
   <time name="dav">   24.62   24.64</time>
   <time name="total">   27.47   27.48</time>
   <energy>
    <i name="e_fr_energy">   -627.14572954 </i>
    <i name="e_wo_entrp">   -627.06351201 </i>
    <i name="e_0_energy">   -627.10462077 </i>
   </energy>
  </scstep>
  <scstep>
   <time name="dav">   23.55   23.56</time>
   <time name="total">   26.37   26.39</time>
   <energy>
    <i name="e_fr_energy">   -627.04858639 </i>
    <i name="e_wo_entrp">   -626.96980464 </i>
    <i name="e_0_energy">   -627.00919552 </i>
   </energy>
  </scstep>
  <scstep>
   <time name="dav">   24.61   24.62</time>
   <time name="total">   27.46   27.47</time>
   <energy>
    <i name="e_fr_energy">   -620.20109530 </i>
    <i name="e_wo_entrp">   -620.12973970 </i>
    <i name="e_0_energy">   -620.16541750 </i>
   </energy>
  </scstep>
  <scstep>
   <time name="dav">   24.79   24.81</time>
   <time name="total">   27.65   27.66</time>
   <energy>
    <i name="e_fr_energy">   -615.31425091 </i>
    <i name="e_wo_entrp">   -615.19410545 </i>
    <i name="e_0_energy">   -615.25417818 </i>
   </energy>
  </scstep>
  <scstep>
   <time name="dav">   26.56   26.57</time>
   <time name="total">   29.38   29.39</time>
   <energy>
    <i name="e_fr_energy">   -617.15057341 </i>
    <i name="e_wo_entrp">   -617.04321639 </i>
    <i name="e_0_energy">   -617.09689490 </i>
   </energy>
  </scstep>
  <scstep>
   <time name="dav">   24.09   24.10</time>
   <time name="total">   26.92   26.93</time>
   <energy>
    <i name="e_fr_energy">   -620.87508144 </i>
    <i name="e_wo_entrp">   -620.75372072 </i>
    <i name="e_0_energy">   -620.81440108 </i>
   </energy>
  </scstep>
  <scstep>
   <time name="dav">   22.26   22.27</time>
   <time name="total">   25.07   25.09</time>
   <energy>
    <i name="e_fr_energy">   -621.43914571 </i>
    <i name="e_wo_entrp">   -621.32545741 </i>
    <i name="e_0_energy">   -621.38230156 </i>
   </energy>
  </scstep>
  <scstep>
   <time name="dav">   27.87   27.88</time>
   <time name="total">   30.71   30.73</time>
   <energy>
    <i name="e_fr_energy">   -621.50847162 </i>
    <i name="e_wo_entrp">   -621.39531314 </i>
    <i name="e_0_energy">   -621.45189238 </i>
   </energy>
  </scstep>
  <scstep>
   <time name="dav">   24.79   24.81</time>
   <time name="total">   27.61   27.62</time>
   <energy>
    <i name="e_fr_energy">   -621.68570727 </i>
    <i name="e_wo_entrp">   -621.57699480 </i>
    <i name="e_0_energy">   -621.63135103 </i>
   </energy>
  </scstep>
  <scstep>
   <time name="dav">   24.06   24.07</time>
   <time name="total">   26.88   26.89</time>
   <energy>
    <i name="e_fr_energy">   -621.40399572 </i>
    <i name="e_wo_entrp">   -621.29473908 </i>
    <i name="e_0_energy">   -621.34936740 </i>
   </energy>
  </scstep>
  <scstep>
   <time name="dav">   21.89   21.90</time>
   <time name="total">   24.70   24.71</time>
   <energy>
    <i name="e_fr_energy">   -621.63995889 </i>
    <i name="e_wo_entrp">   -621.53100439 </i>
    <i name="e_0_energy">   -621.58548164 </i>
   </energy>
  </scstep>
  <scstep>
   <time name="dav">   22.20   22.22</time>
   <time name="total">   25.04   25.05</time>
   <energy>
    <i name="e_fr_energy">   -622.18734958 </i>
    <i name="e_wo_entrp">   -622.08154869 </i>
    <i name="e_0_energy">   -622.13444913 </i>
   </energy>
  </scstep>
  <scstep>
   <time name="dav">   23.23   23.24</time>
   <time name="total">   26.08   26.09</time>
   <energy>
    <i name="e_fr_energy">   -623.00046427 </i>
    <i name="e_wo_entrp">   -622.91699270 </i>
    <i name="e_0_energy">   -622.95872849 </i>
   </energy>
  </scstep>
  <scstep>
   <time name="dav">   21.34   21.36</time>
   <time name="total">   24.17   24.19</time>
   <energy>
    <i name="e_fr_energy">   -623.13143247 </i>
    <i name="e_wo_entrp">   -623.04944495 </i>
    <i name="e_0_energy">   -623.09043871 </i>
   </energy>
  </scstep>
  <scstep>
   <time name="dav">   22.60   22.61</time>
   <time name="total">   25.40   25.42</time>
   <energy>
    <i name="e_fr_energy">   -623.70267466 </i>
    <i name="e_wo_entrp">   -623.62292515 </i>
    <i name="e_0_energy">   -623.66279990 </i>
   </energy>
  </scstep>
  <scstep>
   <time name="dav">   24.46   24.47</time>
   <time name="total">   27.27   27.29</time>
   <energy>
    <i name="e_fr_energy">   -623.22733659 </i>
    <i name="e_wo_entrp">   -623.15287686 </i>
    <i name="e_0_energy">   -623.19010673 </i>
   </energy>
  </scstep>
  <scstep>
   <time name="dav">   23.94   23.96</time>
   <time name="total">   26.77   26.79</time>
   <energy>
    <i name="e_fr_energy">   -623.13338638 </i>
    <i name="e_wo_entrp">   -623.06882464 </i>
    <i name="e_0_energy">   -623.10110551 </i>
   </energy>
  </scstep>
  <scstep>
   <time name="dav">   24.43   24.45</time>
   <time name="total">   27.24   27.28</time>
   <energy>
    <i name="e_fr_energy">   -622.31941971 </i>
    <i name="e_wo_entrp">   -622.24990920 </i>
    <i name="e_0_energy">   -622.28466445 </i>
   </energy>
  </scstep>
  <scstep>
   <time name="dav">   24.94   24.96</time>
   <time name="total">   27.74   27.77</time>
   <energy>
    <i name="e_fr_energy">   -622.86547437 </i>
    <i name="e_wo_entrp">   -622.79254849 </i>
    <i name="e_0_energy">   -622.82901143 </i>
   </energy>
  </scstep>
  <scstep>
   <time name="dav">   24.41   24.42</time>
   <time name="total">   27.21   27.23</time>
   <energy>
    <i name="e_fr_energy">   -622.68541782 </i>
    <i name="e_wo_entrp">   -622.62691972 </i>
    <i name="e_0_energy">   -622.65616877 </i>
   </energy>
  </scstep>
  <scstep>
   <time name="dav">   22.49   22.50</time>
   <time name="total">   25.29   25.33</time>
   <energy>
    <i name="e_fr_energy">   -622.72692088 </i>
    <i name="e_wo_entrp">   -622.67417935 </i>
    <i name="e_0_energy">   -622.70055012 </i>
   </energy>
  </scstep>
  <scstep>
   <time name="dav">   24.88   24.90</time>
   <time name="total">   27.68   27.71</time>
   <energy>
    <i name="e_fr_energy">   -623.10043821 </i>
    <i name="e_wo_entrp">   -623.05062953 </i>
    <i name="e_0_energy">   -623.07553387 </i>
   </energy>
  </scstep>
  <scstep>
   <time name="dav">   24.21   24.22</time>
   <time name="total">   27.02   27.04</time>
   <energy>
    <i name="e_fr_energy">   -622.32340577 </i>
    <i name="e_wo_entrp">   -622.27742999 </i>
    <i name="e_0_energy">   -622.30041788 </i>
   </energy>
  </scstep>
  <scstep>
   <time name="dav">   23.99   24.00</time>
   <time name="total">   26.80   26.82</time>
   <energy>
    <i name="e_fr_energy">   -620.10964516 </i>
    <i name="e_wo_entrp">   -620.07228746 </i>
    <i name="e_0_energy">   -620.09096631 </i>
   </energy>
  </scstep>
  <scstep>
   <time name="dav">   25.37   25.38</time>
   <time name="total">   28.17   28.18</time>
   <energy>
    <i name="e_fr_energy">   -619.19667690 </i>
    <i name="e_wo_entrp">   -619.16634774 </i>
    <i name="e_0_energy">   -619.18151232 </i>
   </energy>
  </scstep>
  <scstep>
   <time name="dav">   21.76   21.77</time>
   <time name="total">   24.57   24.59</time>
   <energy>
    <i name="e_fr_energy">   -618.97961571 </i>
    <i name="e_wo_entrp">   -618.94660921 </i>
    <i name="e_0_energy">   -618.96311246 </i>
   </energy>
  </scstep>
  <scstep>
   <time name="dav">   23.44   23.45</time>
   <time name="total">   26.25   26.27</time>
   <energy>
    <i name="e_fr_energy">   -595.71218293 </i>
    <i name="e_wo_entrp">   -595.65062160 </i>
    <i name="e_0_energy">   -595.68140226 </i>
   </energy>
  </scstep>
  <scstep>
   <time name="dav">   23.24   23.25</time>
   <time name="total">   26.04   26.05</time>
   <energy>
    <i name="e_fr_energy">   -583.94504260 </i>
    <i name="e_wo_entrp">   -583.88600829 </i>
    <i name="e_0_energy">   -583.91552545 </i>
   </energy>
  </scstep>
  <scstep>
   <time name="dav">   23.62   23.63</time>
   <time name="total">   26.42   26.43</time>
   <energy>
    <i name="e_fr_energy">   -585.65617935 </i>
    <i name="e_wo_entrp">   -585.63250188 </i>
    <i name="e_0_energy">   -585.64434062 </i>
   </energy>
  </scstep>
  <scstep>
   <time name="dav">   23.93   23.95</time>
   <time name="total">   26.72   26.74</time>
   <energy>
    <i name="e_fr_energy">   -599.80653419 </i>
    <i name="e_wo_entrp">   -599.77651182 </i>
    <i name="e_0_energy">   -599.79152300 </i>
   </energy>
  </scstep>
  <scstep>
   <time name="dav">   25.04   25.06</time>
   <time name="total">   27.83   27.84</time>
   <energy>
    <i name="e_fr_energy">   -602.47725532 </i>
    <i name="e_wo_entrp">   -602.45189678 </i>
    <i name="e_0_energy">   -602.46457605 </i>
   </energy>
  </scstep>
  <scstep>
   <time name="dav">   25.49   25.51</time>
   <time name="total">   28.31   28.32</time>
   <energy>
    <i name="e_fr_energy">   -594.44050893 </i>
    <i name="e_wo_entrp">   -594.39638061 </i>
    <i name="e_0_energy">   -594.41844477 </i>
   </energy>
  </scstep>
  <scstep>
   <time name="dav">   25.18   25.20</time>
   <time name="total">   28.03   28.04</time>
   <energy>
    <i name="e_fr_energy">   -599.71366268 </i>
    <i name="e_wo_entrp">   -599.65675398 </i>
    <i name="e_0_energy">   -599.68520833 </i>
   </energy>
  </scstep>
  <scstep>
   <time name="dav">   25.50   25.52</time>
   <time name="total">   28.31   28.33</time>
   <energy>
    <i name="e_fr_energy">   -602.58173434 </i>
    <i name="e_wo_entrp">   -602.54493753 </i>
    <i name="e_0_energy">   -602.56333593 </i>
   </energy>
  </scstep>
  <scstep>
   <time name="dav">   24.42   24.44</time>
   <time name="total">   27.21   27.23</time>
   <energy>
    <i name="e_fr_energy">   -607.22534201 </i>
    <i name="e_wo_entrp">   -607.19509524 </i>
    <i name="e_0_energy">   -607.21021863 </i>
   </energy>
  </scstep>
  <scstep>
   <time name="dav">   23.39   23.40</time>
   <time name="total">   26.20   26.21</time>
   <energy>
    <i name="e_fr_energy">   -597.79830353 </i>
    <i name="e_wo_entrp">   -597.77138512 </i>
    <i name="e_0_energy">   -597.78484432 </i>
   </energy>
  </scstep>
  <scstep>
   <time name="dav">   25.17   25.19</time>
   <time name="total">   27.97   27.99</time>
   <energy>
    <i name="e_fr_energy">   -549.05135106 </i>
    <i name="e_wo_entrp">   -548.97897118 </i>
    <i name="e_0_energy">   -549.01516112 </i>
   </energy>
  </scstep>
  <scstep>
   <time name="dav">   24.39   24.40</time>
   <time name="total">   27.17   27.18</time>
   <energy>
    <i name="e_fr_energy">   -550.97241547 </i>
    <i name="e_wo_entrp">   -550.90260228 </i>
    <i name="e_0_energy">   -550.93750887 </i>
   </energy>
  </scstep>
  <scstep>
   <time name="dav">   23.14   23.15</time>
   <time name="total">   25.92   25.94</time>
   <energy>
    <i name="e_fr_energy">   -548.08997400 </i>
    <i name="e_wo_entrp">   -548.01144172 </i>
    <i name="e_0_energy">   -548.05070786 </i>
   </energy>
  </scstep>
  <scstep>
   <time name="dav">   23.34   23.35</time>
   <time name="total">   26.14   26.15</time>
   <energy>
    <i name="e_fr_energy">   -536.20246558 </i>
    <i name="e_wo_entrp">   -536.11836965 </i>
    <i name="e_0_energy">   -536.16041762 </i>
   </energy>
  </scstep>
  <scstep>
   <time name="dav">   22.02   22.03</time>
   <time name="total">   24.83   24.84</time>
   <energy>
    <i name="e_fr_energy">   -536.80291486 </i>
    <i name="e_wo_entrp">   -536.71541971 </i>
    <i name="e_0_energy">   -536.75916728 </i>
   </energy>
  </scstep>
  <scstep>
   <time name="dav">   23.98   24.00</time>
   <time name="total">   26.80   26.82</time>
   <energy>
    <i name="e_fr_energy">   -545.92655057 </i>
    <i name="e_wo_entrp">   -545.86245118 </i>
    <i name="e_0_energy">   -545.89450088 </i>
   </energy>
  </scstep>
  <scstep>
   <time name="dav">   22.54   22.55</time>
   <time name="total">   25.33   25.35</time>
   <energy>
    <i name="e_fr_energy">   -539.51991155 </i>
    <i name="e_wo_entrp">   -539.48413590 </i>
    <i name="e_0_energy">   -539.50202373 </i>
   </energy>
  </scstep>
  <scstep>
   <time name="dav">   23.74   23.75</time>
   <time name="total">   26.55   26.56</time>
   <energy>
    <i name="e_fr_energy">   -541.83744379 </i>
    <i name="e_wo_entrp">   -541.79566947 </i>
    <i name="e_0_energy">   -541.81655663 </i>
   </energy>
  </scstep>
  <scstep>
   <time name="dav">   24.44   24.45</time>
   <time name="total">   27.26   27.27</time>
   <energy>
    <i name="e_fr_energy">   -539.44400625 </i>
    <i name="e_wo_entrp">   -539.37270595 </i>
    <i name="e_0_energy">   -539.40835610 </i>
   </energy>
  </scstep>
  <scstep>
   <time name="dav">   24.03   24.04</time>
   <time name="total">   26.80   26.82</time>
   <energy>
    <i name="e_fr_energy">   -530.33735248 </i>
    <i name="e_wo_entrp">   -530.28652248 </i>
    <i name="e_0_energy">   -530.31193748 </i>
   </energy>
  </scstep>
  <scstep>
   <time name="dav">   25.38   25.39</time>
   <time name="total">   28.19   28.21</time>
   <energy>
    <i name="e_fr_energy">   -536.30647681 </i>
    <i name="e_wo_entrp">   -536.25443052 </i>
    <i name="e_0_energy">   -536.28045366 </i>
   </energy>
  </scstep>
  <scstep>
   <time name="dav">   24.93   24.95</time>
   <time name="total">   27.69   27.71</time>
   <energy>
    <i name="e_fr_energy">   -517.56809012 </i>
    <i name="e_wo_entrp">   -517.52885541 </i>
    <i name="e_0_energy">   -517.54847276 </i>
   </energy>
  </scstep>
  <scstep>
   <time name="dav">   24.58   24.59</time>
   <time name="total">   27.38   27.40</time>
   <energy>
    <i name="e_fr_energy">   -508.96386901 </i>
    <i name="e_wo_entrp">   -508.93966366 </i>
    <i name="e_0_energy">   -508.95176634 </i>
   </energy>
  </scstep>
  <scstep>
   <time name="dav">   24.35   24.37</time>
   <time name="total">   27.13   27.15</time>
   <energy>
    <i name="e_fr_energy">   -492.94445843 </i>
    <i name="e_wo_entrp">   -492.91507635 </i>
    <i name="e_0_energy">   -492.92976739 </i>
   </energy>
  </scstep>
  <scstep>
   <time name="dav">   24.24   24.25</time>
   <time name="total">   27.01   27.03</time>
   <energy>
    <i name="e_fr_energy">   -472.56970292 </i>
    <i name="e_wo_entrp">   -472.53681759 </i>
    <i name="e_0_energy">   -472.55326026 </i>
   </energy>
  </scstep>
  <scstep>
   <time name="dav">   23.45   23.47</time>
   <time name="total">   26.29   26.30</time>
   <energy>
    <i name="e_fr_energy">   -491.61394472 </i>
    <i name="e_wo_entrp">   -491.57283612 </i>
    <i name="e_0_energy">   -491.59339042 </i>
   </energy>
  </scstep>
  <scstep>
   <time name="dav">   23.22   23.24</time>
   <time name="total">   26.00   26.01</time>
   <energy>
    <i name="e_fr_energy">   -490.44975346 </i>
    <i name="e_wo_entrp">   -490.41269766 </i>
    <i name="e_0_energy">   -490.43122556 </i>
   </energy>
  </scstep>
  <scstep>
   <time name="dav">   24.54   24.56</time>
   <time name="total">   27.34   27.36</time>
   <energy>
    <i name="e_fr_energy">   -490.58665220 </i>
    <i name="e_wo_entrp">   -490.56777749 </i>
    <i name="e_0_energy">   -490.57721485 </i>
   </energy>
  </scstep>
  <scstep>
   <time name="dav">   22.67   22.68</time>
   <time name="total">   25.48   25.50</time>
   <energy>
    <i name="e_fr_energy">   -490.16328639 </i>
    <i name="e_wo_entrp">   -490.14346776 </i>
    <i name="e_0_energy">   -490.15337707 </i>
   </energy>
  </scstep>
  <scstep>
   <time name="dav">   21.79   21.80</time>
   <time name="total">   24.60   24.61</time>
   <energy>
    <i name="e_fr_energy">   -486.39831936 </i>
    <i name="e_wo_entrp">   -486.37900977 </i>
    <i name="e_0_energy">   -486.38866456 </i>
   </energy>
  </scstep>
  <scstep>
   <time name="dav">   23.76   23.77</time>
   <time name="total">   26.56   26.57</time>
   <energy>
    <i name="e_fr_energy">   -602.45803317 </i>
    <i name="e_wo_entrp">   -602.41669752 </i>
    <i name="e_0_energy">   -602.43736534 </i>
   </energy>
  </scstep>
  <scstep>
   <time name="dav">   24.43   24.44</time>
   <time name="total">   27.20   27.22</time>
   <energy>
    <i name="e_fr_energy">   -619.72390893 </i>
    <i name="e_wo_entrp">   -619.67934029 </i>
    <i name="e_0_energy">   -619.70162461 </i>
   </energy>
  </scstep>
  <scstep>
   <time name="dav">   26.61   26.62</time>
   <time name="total">   29.43   29.45</time>
   <energy>
    <i name="e_fr_energy">   -624.41123072 </i>
    <i name="e_wo_entrp">   -624.36926662 </i>
    <i name="e_0_energy">   -624.39024867 </i>
   </energy>
  </scstep>
  <scstep>
   <time name="dav">   25.67   25.68</time>
   <time name="total">   28.44   28.45</time>
   <energy>
    <i name="e_fr_energy">   -621.57290746 </i>
    <i name="e_wo_entrp">   -621.54394890 </i>
    <i name="e_0_energy">   -621.55842818 </i>
   </energy>
  </scstep>
  <scstep>
   <time name="dav">   25.37   25.38</time>
   <time name="total">   28.15   28.16</time>
   <energy>
    <i name="e_fr_energy">   -622.25351251 </i>
    <i name="e_wo_entrp">   -622.21439765 </i>
    <i name="e_0_energy">   -622.23395508 </i>
   </energy>
  </scstep>
  <scstep>
   <time name="dav">   27.00   27.02</time>
   <time name="total">   29.79   29.81</time>
   <energy>
    <i name="e_fr_energy">   -624.11323493 </i>
    <i name="e_wo_entrp">   -624.07961869 </i>
    <i name="e_0_energy">   -624.09642681 </i>
   </energy>
  </scstep>
  <scstep>
   <time name="dav">   25.37   25.38</time>
   <time name="total">   28.15   28.16</time>
   <energy>
    <i name="e_fr_energy">   -621.40213072 </i>
    <i name="e_wo_entrp">   -621.37931390 </i>
    <i name="e_0_energy">   -621.39072231 </i>
   </energy>
  </scstep>
  <scstep>
   <time name="dav">   25.29   25.30</time>
   <time name="total">   28.08   28.09</time>
   <energy>
    <i name="e_fr_energy">   -618.76178035 </i>
    <i name="e_wo_entrp">   -618.71174779 </i>
    <i name="e_0_energy">   -618.73676407 </i>
   </energy>
  </scstep>
  <scstep>
   <time name="dav">   24.37   24.38</time>
   <time name="total">   27.13   27.14</time>
   <energy>
    <i name="e_fr_energy">   -613.77832850 </i>
    <i name="e_wo_entrp">   -613.73670630 </i>
    <i name="e_0_energy">   -613.75751740 </i>
   </energy>
  </scstep>
  <scstep>
   <time name="dav">   24.90   24.91</time>
   <time name="total">   26.25   26.26</time>
   <energy>
    <i name="alphaZ">   1646.47971768 </i>
    <i name="ewald"> 126613.02108303 </i>
    <i name="hartreedc">-176836.93315512 </i>
    <i name="XCdc">   1806.96166865 </i>
    <i name="pawpsdc">  52663.04133598 </i>
    <i name="pawaedc"> -51943.49425916 </i>
    <i name="eentropy">     -0.04791569 </i>
    <i name="bandstr">  -7484.20202108 </i>
    <i name="atom">  52924.17385108 </i>
    <i name="e_fr_energy">   -610.99969463 </i>
    <i name="e_wo_entrp">   -610.95177894 </i>
    <i name="e_0_energy">   -610.97573678 </i>
   </energy>
  </scstep>
  <structure>
   <crystal>
    <varray name="basis" >
     <v>      11.59820000       0.00000000       0.00000000 </v>
     <v>      -5.79910000      10.04433584       0.00000000 </v>
     <v>       0.00000000       0.00000000      21.04820000 </v>
    </varray>
    <i name="volume">   2452.03565189 </i>
    <varray name="rec_basis" >
     <v>       0.08622028       0.04977930       0.00000000 </v>
     <v>       0.00000000       0.09955860       0.00000000 </v>
     <v>       0.00000000       0.00000000       0.04751000 </v>
    </varray>
   </crystal>
   <varray name="positions" >
    <v>       0.01288581       0.98711419       0.47544940 </v>
    <v>       0.74885073       0.97876428       0.44815154 </v>
    <v>       0.02123572       0.25114927       0.44815154 </v>
    <v>       0.34511232       0.30755772       0.44389590 </v>
    <v>       0.31696110       0.68303890       0.47077537 </v>
    <v>       0.69244228       0.65488768       0.44389590 </v>
    <v>       0.21741786       0.10711109       0.30665307 </v>
    <v>       0.11111000       0.22222000       0.15999000 </v>
    <v>       0.32803094       0.01091681       0.46143500 </v>
    <v>       0.55350581       0.11328923       0.31742103 </v>
    <v>       0.44444000       0.22222000       0.15999000 </v>
    <v>       0.88820501       0.11179499       0.30514433 </v>
    <v>       0.77778000       0.22222000       0.15999000 </v>
    <v>       0.21862411       0.44020651       0.31427904 </v>
    <v>       0.11111000       0.55556000       0.15999000 </v>
    <v>       0.55644761       0.44355239       0.30670625 </v>
    <v>       0.44444000       0.55556000       0.15999000 </v>
    <v>       0.65690219       0.34309781       0.46304362 </v>
    <v>       0.88671077       0.44649419       0.31742103 </v>
    <v>       0.77778000       0.55556000       0.15999000 </v>
    <v>       0.98908319       0.67196906       0.46143500 </v>
    <v>       0.21943359       0.78056641       0.31252358 </v>
    <v>       0.11111000       0.88889000       0.15999000 </v>
    <v>       0.55979349       0.78137589       0.31427904 </v>
    <v>       0.44444000       0.88889000       0.15999000 </v>
    <v>       0.89288891       0.78258214       0.30665307 </v>
    <v>       0.77778000       0.88889000       0.15999000 </v>
    <v>       0.00000000       0.00000000       0.12250000 </v>
    <v>       0.11856339       0.23684609       0.27603617 </v>
    <v>       0.19719036       0.10449913       0.42901202 </v>
    <v>       0.11111000       0.22222000       0.04751000 </v>
    <v>       0.07023891       0.16637800       0.51358775 </v>
    <v>       0.00173791       0.99826209       0.31900965 </v>
    <v>       0.22222000       0.11111000       0.19748000 </v>
    <v>       0.33333000       0.00000000       0.12250000 </v>
    <v>       0.44450080       0.21999495       0.27412739 </v>
    <v>       0.53337423       0.11496237       0.42913599 </v>
    <v>       0.44444000       0.22222000       0.04751000 </v>
    <v>       0.41954731       0.23452008       0.49658177 </v>
    <v>       0.32653200       0.00430078       0.35299411 </v>
    <v>       0.55556000       0.11111000       0.19748000 </v>
    <v>       0.66667000       0.00000000       0.12250000 </v>
    <v>       0.77359705       0.22640295       0.27862218 </v>
    <v>       0.93256697       0.06743303       0.41462531 </v>
    <v>       0.77778000       0.22222000       0.04751000 </v>
    <v>       0.83120994       0.16879006       0.47055048 </v>
    <v>       0.67569827       0.00348814       0.35984982 </v>
    <v>       0.88889000       0.11111000       0.19748000 </v>
    <v>       0.00000000       0.33333000       0.12250000 </v>
    <v>       0.11800478       0.55842051       0.28402406 </v>
    <v>       0.20611368       0.36892922       0.43277807 </v>
    <v>       0.11111000       0.55556000       0.04751000 </v>
    <v>       0.16013815       0.57868113       0.50840418 </v>
    <v>       0.99651186       0.32430173       0.35984982 </v>
    <v>       0.22222000       0.44444000       0.19748000 </v>
    <v>       0.33333000       0.33333000       0.12250000 </v>
    <v>       0.43947828       0.56052172       0.28067215 </v>
    <v>       0.53503662       0.46496338       0.43060084 </v>
    <v>       0.44444000       0.55556000       0.04751000 </v>
    <v>       0.40395872       0.59604128       0.48736535 </v>
    <v>       0.33906216       0.32876524       0.35229585 </v>
    <v>       0.55556000       0.44444000       0.19748000 </v>
    <v>       0.66667000       0.33333000       0.12250000 </v>
    <v>       0.78000505       0.55549920       0.27412739 </v>
    <v>       0.88503763       0.46662577       0.42913599 </v>
    <v>       0.77778000       0.55556000       0.04751000 </v>
    <v>       0.76547992       0.58045269       0.49658177 </v>
    <v>       0.65784121       0.34215879       0.35082631 </v>
    <v>       0.88889000       0.44444000       0.19748000 </v>
    <v>       0.00000000       0.66667000       0.12250000 </v>
    <v>       0.11799829       0.88200171       0.27323662 </v>
    <v>       0.21850749       0.78149251       0.42969420 </v>
    <v>       0.11111000       0.88889000       0.04751000 </v>
    <v>       0.10544868       0.89455132       0.50897799 </v>
    <v>       0.99569922       0.67346800       0.35299411 </v>
    <v>       0.22222000       0.77778000       0.19748000 </v>
    <v>       0.33333000       0.66667000       0.12250000 </v>
    <v>       0.44157949       0.88199522       0.28402406 </v>
    <v>       0.63107078       0.79388632       0.43277807 </v>
    <v>       0.44444000       0.88889000       0.04751000 </v>
    <v>       0.42131887       0.83986185       0.50840418 </v>
    <v>       0.34007149       0.65992851       0.38209866 </v>
    <v>       0.55556000       0.77778000       0.19748000 </v>
    <v>       0.66667000       0.66667000       0.12250000 </v>
    <v>       0.76315391       0.88143661       0.27603617 </v>
    <v>       0.89550087       0.80280964       0.42901202 </v>
    <v>       0.77778000       0.88889000       0.04751000 </v>
    <v>       0.83362200       0.92976109       0.51358775 </v>
    <v>       0.67123476       0.66093784       0.35229585 </v>
    <v>       0.88889000       0.77778000       0.19748000 </v>
   </varray>
  </structure>
  <varray name="forces" >
   <v>       0.40035622      -0.23114577      -0.95246968 </v>
   <v>      -0.58929225      -0.56946652      -0.20632277 </v>
   <v>       0.19852635       0.79507532      -0.20632277 </v>
   <v>      -0.51320692      -0.22891278      -0.65930361 </v>
   <v>      -0.34025717       0.19644757      -0.18912657 </v>
   <v>      -0.05835918       0.55890662      -0.65930361 </v>
   <v>       0.01459113      -0.04088453      -0.27670423 </v>
   <v>      -0.21599562       0.02922428      -0.82635905 </v>
   <v>       0.52996549      -1.25972316      -0.04030409 </v>
   <v>       0.40639580       0.27468739       0.11373475 </v>
   <v>       0.43562149       0.02072181      -0.33735708 </v>
   <v>      -0.34942751       0.20174207       0.03039417 </v>
   <v>      -0.33652074       0.19429034       0.21027386 </v>
   <v>      -0.26585996      -0.25691223      -0.25342198 </v>
   <v>      -0.10160271       0.07160583       0.09567965 </v>
   <v>       0.11099339      -0.06408206       0.08184758 </v>
   <v>      -0.11720020       0.06766557      -0.67935841 </v>
   <v>       0.00606635      -0.00350241      -1.26433004 </v>
   <v>      -0.03468836      -0.48929278       0.11373475 </v>
   <v>       0.19986513      -0.38762019      -0.33735708 </v>
   <v>       1.35593500       0.17089800      -0.04030409 </v>
   <v>       0.24764386      -0.14297725       0.33935685 </v>
   <v>       0.18367192      -0.10604303      -2.03428239 </v>
   <v>       0.08956254       0.35869759      -0.25342198 </v>
   <v>      -0.11281382       0.05218761       0.09567965 </v>
   <v>       0.04270261       0.00780598      -0.27670423 </v>
   <v>      -0.13330678       0.17244556      -0.82635905 </v>
   <v>       0.03518293      -0.02031287       0.47729298 </v>
   <v>       0.68308640       0.47492789      -0.22144313 </v>
   <v>      -0.65501675       0.36665595      -0.01529441 </v>
   <v>      -0.06210951       0.09505134       0.03338907 </v>
   <v>      -0.22135008       0.10118148      -0.18454498 </v>
   <v>       0.82001471      -0.47343571       0.33989480 </v>
   <v>      -0.23352589      -0.13824820       0.65057524 </v>
   <v>      -0.18450621      -0.17931368       0.21773674 </v>
   <v>      -0.36745873       0.20596725      -0.07210752 </v>
   <v>       0.87343054       0.95287617       0.29489656 </v>
   <v>       0.01361521      -0.01418357      -0.60076831 </v>
   <v>      -0.37409056       0.89443500       0.51839952 </v>
   <v>      -0.33345681      -0.27868225      -0.52153717 </v>
   <v>      -0.07812950      -0.47667776       0.71110967 </v>
   <v>       0.13417244      -0.22745134       0.00213217 </v>
   <v>      -0.41635416       0.24038219       0.03706475 </v>
   <v>       0.13737551      -0.07931379       1.02681244 </v>
   <v>       0.06475600      -0.03738689      -0.45627088 </v>
   <v>      -0.04919153       0.02840074      -0.11482128 </v>
   <v>      -0.25460976      -0.58437673       1.01920475 </v>
   <v>       0.20606472      -0.11897152      -0.41002653 </v>
   <v>       0.26406486      -0.00247107       0.00213217 </v>
   <v>       0.30511778      -0.04508797      -0.02604683 </v>
   <v>       0.53343687      -0.50336745       0.20568842 </v>
   <v>       0.07128444      -0.03653570      -0.69249888 </v>
   <v>       0.51537400       0.29600616      -0.48191930 </v>
   <v>       0.37878021       0.51268688       1.01920475 </v>
   <v>      -0.01182634       0.23926875       0.91384763 </v>
   <v>      -0.03743602       0.07317921       0.28980788 </v>
   <v>       0.03842415      -0.02218419      -0.02301969 </v>
   <v>      -0.06636317       0.03831480       0.46115105 </v>
   <v>      -0.04300081       0.02482653       0.00318355 </v>
   <v>      -0.34539168       0.19941198       0.54638440 </v>
   <v>      -0.02420875      -0.06640231      -0.06988497 </v>
   <v>      -0.30402174       0.17552703       0.58170312 </v>
   <v>      -0.15679340       0.09052471       0.29271074 </v>
   <v>      -0.36210224       0.21524497      -0.07210752 </v>
   <v>      -0.38849970      -1.23285112       0.29489656 </v>
   <v>       0.01909094      -0.00469933      -0.60076831 </v>
   <v>      -0.96164872      -0.12324557       0.51839952 </v>
   <v>       0.08883696      -0.05129004       0.80803119 </v>
   <v>       0.37375030       0.30600102       0.71110967 </v>
   <v>       0.06303710       0.24944390       0.21773674 </v>
   <v>      -0.17802036       0.10278010      -0.29226226 </v>
   <v>       0.44653462      -0.25780688      -0.20538669 </v>
   <v>       0.16527441      -0.09542122       0.88070126 </v>
   <v>      -0.87277356       0.50389605       0.46055111 </v>
   <v>       0.07461750       0.42812319      -0.52153717 </v>
[...]
  <structure>
   <crystal>
    <varray name="basis" >
     <v>      11.59820000       0.00000000       0.00000000 </v>
     <v>      -5.79910000      10.04433584       0.00000000 </v>
     <v>       0.00000000       0.00000000      21.04820000 </v>
    </varray>
    <i name="volume">   2452.03565189 </i>
    <varray name="rec_basis" >
     <v>       0.08622028       0.04977930       0.00000000 </v>
     <v>       0.00000000       0.09955860       0.00000000 </v>
     <v>       0.00000000       0.00000000       0.04751000 </v>
    </varray>
   </crystal>
   <varray name="positions" >
    <v>       0.01216984       0.98783016       0.47757775 </v>
    <v>       0.74584227       0.97954870       0.44951458 </v>
    <v>       0.02045130       0.25415773       0.44951458 </v>
    <v>       0.34439755       0.30218346       0.44231548 </v>
    <v>       0.31465651       0.68534349       0.46600840 </v>
    <v>       0.69781654       0.65560245       0.44231548 </v>
    <v>       0.21893391       0.10502129       0.30721958 </v>
    <v>       0.11111000       0.22222000       0.15999000 </v>
    <v>       0.33284169       0.00446509       0.46391628 </v>
    <v>       0.55455669       0.11295814       0.31856773 </v>
    <v>       0.44444000       0.22222000       0.15999000 </v>
    <v>       0.88869168       0.11130832       0.30713037 </v>
    <v>       0.77778000       0.22222000       0.15999000 </v>
    <v>       0.21829326       0.43753659       0.31327086 </v>
    <v>       0.11111000       0.55556000       0.15999000 </v>
    <v>       0.55640679       0.44359321       0.30804751 </v>
    <v>       0.44444000       0.55556000       0.15999000 </v>
    <v>       0.65998428       0.34001572       0.46277728 </v>
    <v>       0.88704186       0.44544331       0.31856773 </v>
    <v>       0.77778000       0.55556000       0.15999000 </v>
    <v>       0.99553491       0.66715831       0.46391628 </v>
    <v>       0.22066792       0.77933208       0.31240061 </v>
    <v>       0.11111000       0.88889000       0.15999000 </v>
    <v>       0.56246341       0.78170674       0.31327086 </v>
    <v>       0.44444000       0.88889000       0.15999000 </v>
    <v>       0.89497871       0.78106609       0.30721958 </v>
    <v>       0.77778000       0.88889000       0.15999000 </v>
    <v>       0.00000000       0.00000000       0.12250000 </v>
    <v>       0.11912527       0.23518784       0.27462212 </v>
    <v>       0.19377235       0.10237899       0.42834865 </v>
    <v>       0.11111000       0.22222000       0.04751000 </v>
    <v>       0.06780888       0.16631686       0.51439332 </v>
    <v>       0.00557026       0.99442974       0.32563583 </v>
    <v>       0.22222000       0.11111000       0.19748000 </v>
    <v>       0.33333000       0.00000000       0.12250000 </v>
    <v>       0.44578082       0.22105429       0.27494268 </v>
    <v>       0.54515909       0.12536130       0.42889082 </v>
    <v>       0.44444000       0.22222000       0.04751000 </v>
    <v>       0.41595209       0.24008696       0.50189778 </v>
    <v>       0.32836740       0.99998821       0.35128331 </v>
    <v>       0.55556000       0.11111000       0.19748000 </v>
    <v>       0.66667000       0.00000000       0.12250000 </v>
    <v>       0.77305237       0.22694763       0.28077076 </v>
    <v>       0.93032354       0.06967646       0.41810196 </v>
    <v>       0.77778000       0.22222000       0.04751000 </v>
    <v>       0.82799446       0.17200554       0.47038386 </v>
    <v>       0.66376022       0.99467219       0.36474576 </v>
    <v>       0.88889000       0.11111000       0.19748000 </v>
    <v>       0.00000000       0.33333000       0.12250000 </v>
    <v>       0.11820752       0.55572000       0.28206554 </v>
    <v>       0.20851429       0.36143733       0.43109362 </v>
    <v>       0.11111000       0.55556000       0.04751000 </v>
    <v>       0.15514356       0.58182698       0.50272981 </v>
    <v>       0.00532781       0.33623978       0.36474576 </v>
    <v>       0.22222000       0.44444000       0.19748000 </v>
    <v>       0.33333000       0.33333000       0.12250000 </v>
    <v>       0.43993232       0.56006768       0.27991526 </v>
    <v>       0.53501037       0.46498963       0.42972235 </v>
    <v>       0.44444000       0.55556000       0.04751000 </v>
    <v>       0.39832929       0.60167071       0.49504986 </v>
    <v>       0.33614729       0.32750678       0.34921407 </v>
    <v>       0.55556000       0.44444000       0.19748000 </v>
    <v>       0.66667000       0.33333000       0.12250000 </v>
    <v>       0.77894571       0.55421918       0.27494268 </v>
    <v>       0.87463870       0.45484091       0.42889082 </v>
    <v>       0.77778000       0.55556000       0.04751000 </v>
    <v>       0.75991304       0.58404791       0.50189778 </v>
    <v>       0.65949308       0.34050692       0.35260068 </v>
    <v>       0.88889000       0.44444000       0.19748000 </v>
    <v>       0.00000000       0.66667000       0.12250000 </v>
    <v>       0.11831428       0.88168572       0.27211875 </v>
    <v>       0.21854613       0.78145387       0.42671448 </v>
    <v>       0.11111000       0.88889000       0.04751000 </v>
    <v>       0.09505824       0.90494176       0.51771100 </v>
    <v>       0.00001179       0.67163260       0.35128331 </v>
    <v>       0.22222000       0.77778000       0.19748000 </v>
    <v>       0.33333000       0.66667000       0.12250000 </v>
    <v>       0.44428000       0.88179248       0.28206554 </v>
    <v>       0.63856267       0.79148571       0.43109362 </v>
    <v>       0.44444000       0.88889000       0.04751000 </v>
    <v>       0.41817302       0.84485644       0.50272981 </v>
    <v>       0.33913294       0.66086706       0.37878290 </v>
    <v>       0.55556000       0.77778000       0.19748000 </v>
    <v>       0.66667000       0.66667000       0.12250000 </v>
    <v>       0.76481216       0.88087473       0.27462212 </v>
    <v>       0.89762101       0.80622765       0.42834865 </v>
    <v>       0.77778000       0.88889000       0.04751000 </v>
    <v>       0.83368314       0.93219112       0.51439332 </v>
    <v>       0.67249322       0.66385271       0.34921407 </v>
    <v>       0.88889000       0.77778000       0.19748000 </v>
   </varray>
  </structure>
  <varray name="forces" >
   <v>       0.06850813      -0.03955319       0.13553097 </v>
   <v>       0.00156168      -0.07249618       0.08825444 </v>
   <v>       0.06356438       0.03489563       0.08825444 </v>
   <v>       0.07897072      -0.07067884       0.12362153 </v>
   <v>      -0.02398993       0.01385059      -0.08204196 </v>
   <v>       0.10069503      -0.03305122       0.12362153 </v>
   <v>       0.00010601      -0.03006634      -0.01244002 </v>
   <v>      -0.04707606       0.22229575      -1.06364095 </v>
   <v>      -0.07616554       0.07775119       0.02109890 </v>
   <v>       0.01987272       0.00375420       0.03201053 </v>
   <v>       0.33395667      -0.21730080      -0.92917052 </v>
   <v>      -0.00968931       0.00559412      -0.01996361 </v>
   <v>      -0.33296891       0.19223969      -0.57546009 </v>
   <v>      -0.01841610       0.02549312       0.00600843 </v>
   <v>      -0.04254543      -0.08384282      -0.68879253 </v>
   <v>       0.07043876      -0.04066784      -0.08449689 </v>
   <v>      -0.32023346       0.18488687      -0.88020415 </v>
   <v>      -0.03621026       0.02090600       0.01949349 </v>
   <v>       0.00668513      -0.01908738       0.03201053 </v>
   <v>       0.35516635      -0.18056456      -0.92917052 </v>
   <v>      -0.10541728       0.02708570       0.02109890 </v>
   <v>       0.03749472      -0.02164759      -0.04433099 </v>
   <v>       0.22352060      -0.12904968      -1.31522537 </v>
   <v>      -0.03128574       0.00320225       0.00600843 </v>
   <v>       0.05133730       0.07876683      -0.68879253 </v>
   <v>       0.02609122       0.01494137      -0.01244002 </v>
   <v>      -0.21605179      -0.07037881      -1.06364095 </v>
   <v>      -0.00091954       0.00053089       0.16956641 </v>
   <v>       0.03984865       0.01203965      -0.00009951 </v>
   <v>      -0.02383329       0.03952380       0.03302173 </v>
   <v>       0.02233432       0.02733706       0.10604316 </v>
   <v>      -0.04138167       0.03221295       0.02921202 </v>
   <v>       0.02475516      -0.01429240       0.03164657 </v>
   <v>      -0.07804735      -0.05572001       0.55076527 </v>
   <v>       0.02172807      -0.01987411       0.15724192 </v>
   <v>       0.02103237       0.03066335      -0.00444559 </v>
   <v>      -0.02494994      -0.02512157       0.02177000 </v>
   <v>       0.00060659       0.03835341       0.09394171 </v>
   <v>      -0.01912470       0.03072406      -0.07776992 </v>
   <v>      -0.00253477       0.02915322      -0.01403407 </v>
   <v>       0.08760957      -0.28405263       0.76727544 </v>
   <v>      -0.00548578       0.02492898       0.11679709 </v>
   <v>      -0.01408687       0.00813306      -0.00571941 </v>
   <v>       0.05321863      -0.03072579      -0.03043230 </v>
   <v>       0.03810067      -0.02199743       0.12353784 </v>
   <v>      -0.01095475       0.00632473      -0.02427687 </v>
   <v>      -0.01335371       0.00461333      -0.04457305 </v>
   <v>      -0.04345641       0.02508957       0.09942632 </v>
   <v>      -0.02433203      -0.00771367       0.11679709 </v>
   <v>       0.03314152      -0.01860021       0.01980366 </v>
   <v>      -0.04906471       0.02541663      -0.01863253 </v>
   <v>       0.03700475       0.03326199       0.15853345 </v>
   <v>      -0.06095108      -0.01604127      -0.01813600 </v>
   <v>      -0.01067212       0.00925799      -0.04457305 </v>
   <v>      -0.00925458       0.21369308       0.69967739 </v>
   <v>       0.02781046       0.00915173       0.13726342 </v>
   <v>       0.01214605      -0.00701253       0.03280606 </v>
   <v>       0.00560601      -0.00323663       0.00420178 </v>
   <v>      -0.04631518       0.02674008       0.15077320 </v>
   <v>       0.00510443      -0.00294704       0.04397887 </v>
   <v>      -0.00327607       0.00442964       0.00259405 </v>
   <v>      -0.22932486       0.13240077       0.80841049 </v>
   <v>      -0.02750826       0.01588190       0.11225805 </v>
   <v>      -0.01603905      -0.03354624      -0.00444559 </v>
   <v>       0.00928095       0.03416807       0.02177000 </v>
   <v>      -0.03291173      -0.01970203       0.09394171 </v>
   <v>      -0.03617016       0.00120045      -0.07776992 </v>
   <v>       0.00684653      -0.00395285      -0.01953063 </v>
   <v>       0.28980158       0.06615420       0.76727544 </v>
   <v>       0.02807552      -0.00888001       0.15724192 </v>
   <v>      -0.02017710       0.01164926      -0.06669726 </v>
   <v>      -0.02607854       0.01505645      -0.01632172 </v>
   <v>      -0.02841258       0.01640401       0.07547357 </v>
   <v>      -0.02955834       0.01706552       0.01192982 </v>
   <v>      -0.02651482      -0.01238144      -0.01403407 </v>
   <v>       0.35985814      -0.20776419       0.63075046 </v>
   <v>       0.01627797      -0.00939809       0.06550816 </v>
   <v>       0.03267901      -0.01940129       0.01980366 </v>
   <v>      -0.04654381       0.02978297      -0.01863253 </v>
   <v>      -0.01030335      -0.04867804       0.15853345 </v>
   <v>      -0.01658339       0.06080582      -0.01813600 </v>
   <v>      -0.04496866       0.02596267       0.06301030 </v>
   <v>      -0.18969092      -0.09883184       0.69967739 </v>
   <v>       0.00597960      -0.02866043       0.13726342 </v>
   <v>       0.00949768      -0.04052977      -0.00009951 </v>
   <v>      -0.04614526       0.00087834       0.03302173 </v>
   <v>      -0.01250743      -0.03301062       0.10604316 </v>
   <v>      -0.04858807       0.01973110       0.02921202 </v>
   <v>      -0.00547422       0.00062234       0.00259405 </v>
   <v>       0.00923127       0.09545099       0.55076527 </v>
  </varray>
  <varray name="stress" >
   <v>      -1.50271425      -0.55409695      -1.26109246 </v>
   <v>      -0.55409695      -2.14253029       0.72809207 </v>
   <v>      -1.26087958       0.72796916       1.29707261 </v>
  </varray>
  <energy>
   <i name="e_fr_energy">   -631.17637920 </i>
   <i name="e_wo_entrp">   -631.12045182 </i>
   <i name="e_0_energy">   -631.14841551 </i>
  </energy>
  <time name="totalsc"> 2167.13 2168.40</time>
 </calculation>
 <calculation>
  <scstep>
   <time name="dav">   17.00   17.01</time>
   <time name="total">   19.76   19.80</time>
   <energy>
    <i name="alphaZ">   1646.47971768 </i>
    <i name="ewald"> 125990.77715161 </i>
    <i name="hartreedc">-176219.79960193 </i>
    <i name="XCdc">   1801.62678950 </i>
    <i name="pawpsdc">  52447.37139240 </i>
    <i name="pawaedc"> -51751.78754737 </i>
    <i name="eentropy">     -0.05585695 </i>
    <i name="bandstr">  -7469.96200065 </i>
    <i name="atom">  52924.17385108 </i>
    <i name="e_fr_energy">   -631.17610462 </i>
    <i name="e_wo_entrp">   -631.12024766 </i>
    <i name="e_0_energy">   -631.14817614 </i>
   </energy>
  </scstep>
  <scstep>
   <time name="dav">   21.93   21.95</time>
   <time name="total">   24.69   24.70</time>
   <energy>
    <i name="e_fr_energy">   -631.17470367 </i>
    <i name="e_wo_entrp">   -631.11556622 </i>
    <i name="e_0_energy">   -631.14513495 </i>
   </energy>
  </scstep>
  <scstep>
   <time name="dav">   22.62   22.63</time>
   <time name="total">   25.39   25.40</time>
   <energy>
    <i name="e_fr_energy">   -631.18102839 </i>
    <i name="e_wo_entrp">   -631.11288099 </i>
    <i name="e_0_energy">   -631.14695469 </i>
   </energy>
  </scstep>
  <scstep>
   <time name="dav">   21.02   21.03</time>
   <time name="total">   23.78   23.79</time>
   <energy>
    <i name="e_fr_energy">   -631.17678193 </i>
    <i name="e_wo_entrp">   -631.11130908 </i>
    <i name="e_0_energy">   -631.14404550 </i>
   </energy>
  </scstep>
  <scstep>
   <time name="dav">   21.90   21.91</time>
   <time name="total">   24.66   24.68</time>
   <energy>
    <i name="e_fr_energy">   -631.17518672 </i>
    <i name="e_wo_entrp">   -631.11547069 </i>
    <i name="e_0_energy">   -631.14532871 </i>
   </energy>
  </scstep>
  <scstep>
   <time name="dav">   24.07   24.08</time>
   <time name="total">   26.82   26.84</time>
   <energy>
    <i name="e_fr_energy">   -631.17630739 </i>
    <i name="e_wo_entrp">   -631.11793557 </i>
    <i name="e_0_energy">   -631.14712148 </i>
   </energy>
  </scstep>
  <scstep>
   <time name="dav">   22.76   22.77</time>
   <time name="total">   25.54   25.57</time>
   <energy>
    <i name="e_fr_energy">   -631.17665985 </i>
    <i name="e_wo_entrp">   -631.11762461 </i>
    <i name="e_0_energy">   -631.14714223 </i>
   </energy>
  </scstep>
  <scstep>
   <time name="dav">   22.62   22.63</time>
   <time name="total">   25.40   25.41</time>
   <energy>
    <i name="e_fr_energy">   -631.17669128 </i>
    <i name="e_wo_entrp">   -631.11753540 </i>
    <i name="e_0_energy">   -631.14711334 </i>
   </energy>
  </scstep>
  <scstep>
   <time name="dav">   18.18   18.19</time>
   <time name="total">   20.95   20.96</time>
   <energy>
    <i name="e_fr_energy">   -631.17667253 </i>
    <i name="e_wo_entrp">   -631.11748853 </i>
    <i name="e_0_energy">   -631.14708053 </i>
   </energy>
  </scstep>
  <scstep>
   <time name="dav">   13.01   13.02</time>
   <time name="total">   15.78   15.79</time>
   <energy>
    <i name="e_fr_energy">   -631.17666461 </i>
    <i name="e_wo_entrp">   -631.11749714 </i>
    <i name="e_0_energy">   -631.14708087 </i>
   </energy>
  </scstep>
  <scstep>
   <time name="dav">   20.58   20.60</time>
   <time name="total">   23.35   23.37</time>
   <energy>
    <i name="e_fr_energy">   -631.17656709 </i>
    <i name="e_wo_entrp">   -631.11758283 </i>
    <i name="e_0_energy">   -631.14707496 </i>
   </energy>
  </scstep>
  <scstep>
   <time name="dav">   20.71   20.73</time>
   <time name="total">   23.46   23.47</time>
   <energy>
    <i name="e_fr_energy">   -631.17634947 </i>
    <i name="e_wo_entrp">   -631.11745627 </i>
    <i name="e_0_energy">   -631.14690287 </i>
   </energy>
  </scstep>
  <scstep>
   <time name="dav">   21.56   21.57</time>
   <time name="total">   24.30   24.31</time>
   <energy>
    <i name="e_fr_energy">   -631.17625389 </i>
    <i name="e_wo_entrp">   -631.11713956 </i>
    <i name="e_0_energy">   -631.14669672 </i>
   </energy>
  </scstep>
  <scstep>
   <time name="dav">   22.38   22.39</time>
   <time name="total">   25.13   25.14</time>
   <energy>
    <i name="e_fr_energy">   -631.17617449 </i>
    <i name="e_wo_entrp">   -631.11717675 </i>
    <i name="e_0_energy">   -631.14667562 </i>
   </energy>
  </scstep>
  <scstep>
   <time name="dav">   21.82   21.83</time>
   <time name="total">   24.57   24.58</time>
   <energy>
    <i name="e_fr_energy">   -631.17608715 </i>
    <i name="e_wo_entrp">   -631.11777594 </i>
    <i name="e_0_energy">   -631.14693154 </i>
   </energy>
  </scstep>
  <scstep>
   <time name="dav">   18.87   18.88</time>
   <time name="total">   21.61   21.62</time>
   <energy>
    <i name="e_fr_energy">   -631.17616808 </i>
    <i name="e_wo_entrp">   -631.11793663 </i>
    <i name="e_0_energy">   -631.14705236 </i>
   </energy>
  </scstep>
  <scstep>
   <time name="dav">   19.70   19.71</time>
   <time name="total">   22.48   22.49</time>
   <energy>
    <i name="e_fr_energy">   -631.17615298 </i>
    <i name="e_wo_entrp">   -631.11795761 </i>
    <i name="e_0_energy">   -631.14705530 </i>
   </energy>
  </scstep>
  <scstep>
   <time name="dav">   19.64   19.66</time>
   <time name="total">   22.46   22.48</time>
   <energy>
    <i name="e_fr_energy">   -631.17621377 </i>
    <i name="e_wo_entrp">   -631.11779603 </i>
    <i name="e_0_energy">   -631.14700490 </i>
   </energy>
  </scstep>
  <scstep>
   <time name="dav">   20.63   20.64</time>
   <time name="total">   23.42   23.43</time>
   <energy>
    <i name="e_fr_energy">   -631.17626352 </i>
    <i name="e_wo_entrp">   -631.11772637 </i>
    <i name="e_0_energy">   -631.14699495 </i>
   </energy>
  </scstep>
  <scstep>
   <time name="dav">   20.31   20.33</time>
   <time name="total">   23.07   23.08</time>
   <energy>
    <i name="e_fr_energy">   -631.17631864 </i>
    <i name="e_wo_entrp">   -631.11769333 </i>
    <i name="e_0_energy">   -631.14700598 </i>
   </energy>
  </scstep>
  <scstep>
   <time name="dav">   22.57   22.58</time>
   <time name="total">   25.34   25.36</time>
   <energy>
    <i name="e_fr_energy">   -631.17652663 </i>
    <i name="e_wo_entrp">   -631.11790904 </i>
    <i name="e_0_energy">   -631.14721783 </i>
   </energy>
  </scstep>
  <scstep>
   <time name="dav">   20.23   20.24</time>
   <time name="total">   22.97   22.99</time>
   <energy>
    <i name="e_fr_energy">   -631.17554122 </i>
    <i name="e_wo_entrp">   -631.11771649 </i>
    <i name="e_0_energy">   -631.14662886 </i>
   </energy>
  </scstep>
  <scstep>
   <time name="dav">   20.78   20.79</time>
   <time name="total">   23.54   23.55</time>
   <energy>
    <i name="e_fr_energy">   -631.17575023 </i>
    <i name="e_wo_entrp">   -631.11831713 </i>
    <i name="e_0_energy">   -631.14703368 </i>
   </energy>
  </scstep>
  <scstep>
   <time name="dav">   22.12   22.14</time>
   <time name="total">   24.87   24.89</time>
   <energy>
    <i name="e_fr_energy">   -631.17552237 </i>
    <i name="e_wo_entrp">   -631.11805628 </i>
    <i name="e_0_energy">   -631.14678932 </i>
   </energy>
  </scstep>
  <scstep>
   <time name="dav">   19.69   19.70</time>
   <time name="total">   22.45   22.46</time>
   <energy>
    <i name="e_fr_energy">   -631.17602068 </i>
    <i name="e_wo_entrp">   -631.11821227 </i>
    <i name="e_0_energy">   -631.14711648 </i>
   </energy>
  </scstep>
  <scstep>
   <time name="dav">   20.88   20.89</time>
