<?xml version="1.0" encoding="ISO-8859-1"?>
<modeling>
 <generator>
  <i name="program" type="string">vasp </i>
  <i name="version" type="string">6.4.3  </i>
  <i name="subversion" type="string">19Mar24 (build Mar 01 2025 17:53:50) complex                          parallel </i>
  <i name="platform" type="string">Shaheen </i>
  <i name="date" type="string">2025 04 21 </i>
  <i name="time" type="string">16:34:03 </i>
 </generator>
 <incar>
  <i type="int" name="ISTART">     1</i>
  <i type="string" name="PREC">Accurate   (Precision level: Normal or Accurate, set Accurate when perform structure lattice relaxation calculation)</i>
  <i type="logical" name="ADDGRID"> T  </i>
  <i type="int" name="ISPIN">     2</i>
  <i type="int" name="NELM">    90</i>
  <i type="int" name="NELMIN">     6</i>
  <i type="int" name="IBRION">     2</i>
  <i name="EDIFF">      0.00000100</i>
  <i name="EDIFFG">     -0.02000000</i>
  <i type="int" name="NSW">   300</i>
  <i type="int" name="ISIF">     2</i>
  <i name="ENCUT">    520.00000000</i>
  <v name="MAGMOM">      0.60000000      0.60000000      0.60000000      0.60000000      0.60000000      0.60000000      1.00000000      1.00000000      1.00000000      1.00000000      1.00000000      1.00000000      1.00000000      1.00000000      1.00000000      1.00000000      1.00000000      1.00000000      1.00000000      1.00000000
      1.00000000      1.00000000      1.00000000      1.00000000      1.00000000      1.00000000      1.00000000      0.60000000      0.60000000      0.60000000      0.60000000      0.60000000      0.60000000      0.60000000      0.60000000      0.60000000      0.60000000      0.60000000      0.60000000      0.60000000
      0.60000000      0.60000000      0.60000000      0.60000000      0.60000000      0.60000000      0.60000000      0.60000000      0.60000000      0.60000000      0.60000000      0.60000000      0.60000000      0.60000000      0.60000000      0.60000000      0.60000000      0.60000000      0.60000000      0.60000000
      0.60000000      0.60000000      0.60000000      0.60000000      0.60000000      0.60000000      0.60000000      0.60000000      0.60000000      0.60000000      0.60000000      0.60000000      0.60000000      0.60000000      0.60000000      0.60000000      0.60000000      0.60000000      0.60000000      0.60000000
      0.60000000      0.60000000      0.60000000      0.60000000      0.60000000      0.60000000      0.60000000      0.60000000      0.60000000      0.60000000</v>
  <i type="logical" name="LREAL"> F  </i>
  <i type="int" name="ISMEAR">     0</i>
  <i name="SIGMA">      0.05000000</i>
  <i type="int" name="LMAXMIX">     6</i>
  <i type="logical" name="LWAVE"> F  </i>
  <i type="logical" name="LCHARG"> F  </i>
  <i type="logical" name="LASPH"> T  </i>
  <i type="logical" name="LDAU"> T  </i>
  <i type="int" name="LDAUTYPE">     2</i>
  <v type="int" name="LDAUL">     2     3    -1</v>
  <v name="LDAUU">      2.00000000      5.00000000      0.00000000</v>
  <v name="LDAUJ">      0.00000000      0.00000000      0.00000000</v>
 </incar>
 <primitive_cell>
  <structure name="primitive_cell" >
   <crystal>
    <varray name="basis" >
     <v>      11.59820000       0.00000000       0.00000000 </v>
     <v>      -5.79910000      10.04433584       0.00000000 </v>
     <v>       0.00000000       0.00000000      21.04820000 </v>
    </varray>
    <i name="volume">   2452.03565189 </i>
    <varray name="rec_basis" >
     <v>       0.08622028       0.04977930       0.00000000 </v>
     <v>       0.00000000       0.09955860       0.00000000 </v>
     <v>       0.00000000       0.00000000       0.04751000 </v>
    </varray>
   </crystal>
   <varray name="positions" >
    <v>       0.01288581       0.98711419       0.47544940 </v>
    <v>       0.74885073       0.97876428       0.44815154 </v>
    <v>       0.02123572       0.25114927       0.44815154 </v>
    <v>       0.34511232       0.30755772       0.44389590 </v>
    <v>       0.31696110       0.68303890       0.47077537 </v>
    <v>       0.69244228       0.65488768       0.44389590 </v>
    <v>       0.21741786       0.10711109       0.30665307 </v>
    <v>       0.11111000       0.22222000       0.15999000 </v>
    <v>       0.32803094       0.01091681       0.46143500 </v>
    <v>       0.55350581       0.11328923       0.31742103 </v>
    <v>       0.44444000       0.22222000       0.15999000 </v>
    <v>       0.88820501       0.11179499       0.30514433 </v>
    <v>       0.77778000       0.22222000       0.15999000 </v>
    <v>       0.21862411       0.44020651       0.31427904 </v>
    <v>       0.11111000       0.55556000       0.15999000 </v>
    <v>       0.55644761       0.44355239       0.30670625 </v>
    <v>       0.44444000       0.55556000       0.15999000 </v>
    <v>       0.65690219       0.34309781       0.46304362 </v>
    <v>       0.88671077       0.44649419       0.31742103 </v>
    <v>       0.77778000       0.55556000       0.15999000 </v>
    <v>       0.98908319       0.67196906       0.46143500 </v>
    <v>       0.21943359       0.78056641       0.31252358 </v>
    <v>       0.11111000       0.88889000       0.15999000 </v>
    <v>       0.55979349       0.78137589       0.31427904 </v>
    <v>       0.44444000       0.88889000       0.15999000 </v>
    <v>       0.89288891       0.78258214       0.30665307 </v>
    <v>       0.77778000       0.88889000       0.15999000 </v>
    <v>       0.00000000       0.00000000       0.12250000 </v>
    <v>       0.11856339       0.23684609       0.27603617 </v>
    <v>       0.19719036       0.10449913       0.42901202 </v>
    <v>       0.11111000       0.22222000       0.04751000 </v>
    <v>       0.07023891       0.16637800       0.51358775 </v>
    <v>       0.00173791       0.99826209       0.31900965 </v>
    <v>       0.22222000       0.11111000       0.19748000 </v>
    <v>       0.33333000       0.00000000       0.12250000 </v>
    <v>       0.44450080       0.21999495       0.27412739 </v>
    <v>       0.53337423       0.11496237       0.42913599 </v>
    <v>       0.44444000       0.22222000       0.04751000 </v>
    <v>       0.41954731       0.23452008       0.49658177 </v>
    <v>       0.32653200       0.00430078       0.35299411 </v>
    <v>       0.55556000       0.11111000       0.19748000 </v>
    <v>       0.66667000       0.00000000       0.12250000 </v>
    <v>       0.77359705       0.22640295       0.27862218 </v>
    <v>       0.93256697       0.06743303       0.41462531 </v>
    <v>       0.77778000       0.22222000       0.04751000 </v>
    <v>       0.83120994       0.16879006       0.47055048 </v>
    <v>       0.67569827       0.00348814       0.35984982 </v>
    <v>       0.88889000       0.11111000       0.19748000 </v>
    <v>       1.00000000       0.33333000       0.12250000 </v>
    <v>       0.11800478       0.55842051       0.28402406 </v>
    <v>       0.20611368       0.36892922       0.43277807 </v>
    <v>       0.11111000       0.55556000       0.04751000 </v>
    <v>       0.16013815       0.57868113       0.50840418 </v>
    <v>       0.99651186       0.32430173       0.35984982 </v>
    <v>       0.22222000       0.44444000       0.19748000 </v>
    <v>       0.33333000       0.33333000       0.12250000 </v>
    <v>       0.43947828       0.56052172       0.28067215 </v>
    <v>       0.53503662       0.46496338       0.43060084 </v>
    <v>       0.44444000       0.55556000       0.04751000 </v>
    <v>       0.40395872       0.59604128       0.48736535 </v>
    <v>       0.33906216       0.32876524       0.35229585 </v>
    <v>       0.55556000       0.44444000       0.19748000 </v>
    <v>       0.66667000       0.33333000       0.12250000 </v>
    <v>       0.78000505       0.55549920       0.27412739 </v>
    <v>       0.88503763       0.46662577       0.42913599 </v>
    <v>       0.77778000       0.55556000       0.04751000 </v>
    <v>       0.76547992       0.58045269       0.49658177 </v>
    <v>       0.65784121       0.34215879       0.35082631 </v>
    <v>       0.88889000       0.44444000       0.19748000 </v>
    <v>       1.00000000       0.66667000       0.12250000 </v>
    <v>       0.11799829       0.88200171       0.27323662 </v>
    <v>       0.21850749       0.78149251       0.42969420 </v>
    <v>       0.11111000       0.88889000       0.04751000 </v>
    <v>       0.10544868       0.89455132       0.50897799 </v>
    <v>       0.99569922       0.67346800       0.35299411 </v>
    <v>       0.22222000       0.77778000       0.19748000 </v>
    <v>       0.33333000       0.66667000       0.12250000 </v>
    <v>       0.44157949       0.88199522       0.28402406 </v>
    <v>       0.63107078       0.79388632       0.43277807 </v>
    <v>       0.44444000       0.88889000       0.04751000 </v>
    <v>       0.42131887       0.83986185       0.50840418 </v>
    <v>       0.34007149       0.65992851       0.38209866 </v>
    <v>       0.55556000       0.77778000       0.19748000 </v>
    <v>       0.66667000       0.66667000       0.12250000 </v>
    <v>       0.76315391       0.88143661       0.27603617 </v>
    <v>       0.89550087       0.80280964       0.42901202 </v>
    <v>       0.77778000       0.88889000       0.04751000 </v>
    <v>       0.83362200       0.92976109       0.51358775 </v>
    <v>       0.67123476       0.66093784       0.35229585 </v>
    <v>       0.88889000       0.77778000       0.19748000 </v>
   </varray>
  </structure>
  <varray name="primitive_index" >
   <v type="int" >        1 </v>
   <v type="int" >        2 </v>
   <v type="int" >        3 </v>
   <v type="int" >        4 </v>
   <v type="int" >        5 </v>
   <v type="int" >        6 </v>
   <v type="int" >        7 </v>
   <v type="int" >        8 </v>
   <v type="int" >        9 </v>
   <v type="int" >       10 </v>
   <v type="int" >       11 </v>
   <v type="int" >       12 </v>
   <v type="int" >       13 </v>
   <v type="int" >       14 </v>
   <v type="int" >       15 </v>
   <v type="int" >       16 </v>
   <v type="int" >       17 </v>
   <v type="int" >       18 </v>
   <v type="int" >       19 </v>
   <v type="int" >       20 </v>
   <v type="int" >       21 </v>
   <v type="int" >       22 </v>
   <v type="int" >       23 </v>
   <v type="int" >       24 </v>
   <v type="int" >       25 </v>
   <v type="int" >       26 </v>
   <v type="int" >       27 </v>
   <v type="int" >       28 </v>
   <v type="int" >       29 </v>
   <v type="int" >       30 </v>
   <v type="int" >       31 </v>
   <v type="int" >       32 </v>
   <v type="int" >       33 </v>
   <v type="int" >       34 </v>
   <v type="int" >       35 </v>
   <v type="int" >       36 </v>
   <v type="int" >       37 </v>
   <v type="int" >       38 </v>
   <v type="int" >       39 </v>
   <v type="int" >       40 </v>
   <v type="int" >       41 </v>
   <v type="int" >       42 </v>
   <v type="int" >       43 </v>
   <v type="int" >       44 </v>
   <v type="int" >       45 </v>
   <v type="int" >       46 </v>
   <v type="int" >       47 </v>
   <v type="int" >       48 </v>
   <v type="int" >       49 </v>
   <v type="int" >       50 </v>
   <v type="int" >       51 </v>
   <v type="int" >       52 </v>
   <v type="int" >       53 </v>
   <v type="int" >       54 </v>
   <v type="int" >       55 </v>
   <v type="int" >       56 </v>
   <v type="int" >       57 </v>
   <v type="int" >       58 </v>
   <v type="int" >       59 </v>
   <v type="int" >       60 </v>
   <v type="int" >       61 </v>
   <v type="int" >       62 </v>
   <v type="int" >       63 </v>
   <v type="int" >       64 </v>
   <v type="int" >       65 </v>
   <v type="int" >       66 </v>
   <v type="int" >       67 </v>
   <v type="int" >       68 </v>
   <v type="int" >       69 </v>
   <v type="int" >       70 </v>
   <v type="int" >       71 </v>
   <v type="int" >       72 </v>
   <v type="int" >       73 </v>
   <v type="int" >       74 </v>
   <v type="int" >       75 </v>
   <v type="int" >       76 </v>
   <v type="int" >       77 </v>
   <v type="int" >       78 </v>
   <v type="int" >       79 </v>
   <v type="int" >       80 </v>
   <v type="int" >       81 </v>
   <v type="int" >       82 </v>
   <v type="int" >       83 </v>
   <v type="int" >       84 </v>
   <v type="int" >       85 </v>
   <v type="int" >       86 </v>
   <v type="int" >       87 </v>
   <v type="int" >       88 </v>
   <v type="int" >       89 </v>
   <v type="int" >       90 </v>
  </varray>
 </primitive_cell>
 <kpoints>
  <generation param="Monkhorst-Pack">
   <v type="int" name="divisions">       3        3        1 </v>
   <v name="usershift">      0.00000000       0.00000000       0.00000000 </v>
   <v name="genvec1">      0.33333333      -0.00000000       0.00000000 </v>
   <v name="genvec2">      0.00000000       0.33333333       0.00000000 </v>
   <v name="genvec3">      0.00000000       0.00000000       1.00000000 </v>
   <v name="shift">      0.00000000       0.00000000       0.00000000 </v>
  </generation>
  <varray name="kpointlist" >
   <v>       0.00000000       0.00000000       0.00000000 </v>
   <v>       0.33333333      -0.00000000       0.00000000 </v>
   <v>      -0.33333333       0.33333333       0.00000000 </v>
   <v>       0.33333333       0.33333333       0.00000000 </v>
  </varray>
  <varray name="weights" >
   <v>       0.11111111 </v>
   <v>       0.44444444 </v>
   <v>       0.22222222 </v>
   <v>       0.22222222 </v>
  </varray>
 </kpoints>
 <parameters>
  <separator name="general" >
   <i type="string" name="SYSTEM">unknown system</i>
   <i type="logical" name="LCOMPAT"> F  </i>
  </separator>
  <separator name="electronic" >
   <i type="string" name="PREC">accura</i>
   <i name="ENMAX">    520.00000000</i>
   <i name="ENAUG">    605.39200000</i>
   <i name="EDIFF">      0.00000100</i>
   <i type="int" name="IALGO">    38</i>
   <i type="int" name="IWAVPR">    11</i>
   <i type="int" name="NBANDS">   480</i>
   <i type="int" name="NBANDSLOW">    -1</i>
   <i type="int" name="NBANDSHIGH">    -1</i>
   <i name="NELECT">    684.00000000</i>
   <i type="int" name="TURBO">     0</i>
   <i type="int" name="IRESTART">     0</i>
   <i type="int" name="NREBOOT">     0</i>
   <i type="int" name="NMIN">     0</i>
   <i name="EREF">      0.00000000</i>
   <separator name="electronic smearing" >
    <i type="int" name="ISMEAR">     0</i>
    <i name="SIGMA">      0.05000000</i>
    <i name="KSPACING">      0.50000000</i>
    <i type="logical" name="KGAMMA"> T  </i>
    <i type="logical" name="KBLOWUP"> T  </i>
   </separator>
   <separator name="electronic projectors" >
    <i type="logical" name="LREAL"> F  </i>
    <v name="ROPT">      0.00000000      0.00000000      0.00000000</v>
    <i type="int" name="LMAXPAW">  -100</i>
    <i type="int" name="LMAXMIX">     6</i>
    <i type="logical" name="NLSPLINE"> F  </i>
   </separator>
   <separator name="electronic startup" >
    <i type="int" name="ISTART">     0</i>
    <i type="int" name="ICHARG">     2</i>
    <i type="int" name="INIWAV">     1</i>
   </separator>
   <separator name="electronic spin" >
    <i type="int" name="ISPIN">     2</i>
    <i type="logical" name="LNONCOLLINEAR"> F  </i>
    <v name="MAGMOM">      0.60000000      0.60000000      0.60000000      0.60000000      0.60000000      0.60000000      1.00000000      1.00000000      1.00000000      1.00000000      1.00000000      1.00000000      1.00000000      1.00000000      1.00000000      1.00000000      1.00000000      1.00000000      1.00000000      1.00000000
      1.00000000      1.00000000      1.00000000      1.00000000      1.00000000      1.00000000      1.00000000      0.60000000      0.60000000      0.60000000      0.60000000      0.60000000      0.60000000      0.60000000      0.60000000      0.60000000      0.60000000      0.60000000      0.60000000      0.60000000
      0.60000000      0.60000000      0.60000000      0.60000000      0.60000000      0.60000000      0.60000000      0.60000000      0.60000000      0.60000000      0.60000000      0.60000000      0.60000000      0.60000000      0.60000000      0.60000000      0.60000000      0.60000000      0.60000000      0.60000000
      0.60000000      0.60000000      0.60000000      0.60000000      0.60000000      0.60000000      0.60000000      0.60000000      0.60000000      0.60000000      0.60000000      0.60000000      0.60000000      0.60000000      0.60000000      0.60000000      0.60000000      0.60000000      0.60000000      0.60000000
      0.60000000      0.60000000      0.60000000      0.60000000      0.60000000      0.60000000      0.60000000      0.60000000      0.60000000      0.60000000</v>
    <i name="NUPDOWN">     -1.00000000</i>
    <i type="logical" name="LSORBIT"> F  </i>
    <v name="SAXIS">      0.00000000      0.00000000      1.00000000</v>
    <i type="logical" name="LSPIRAL"> F  </i>
    <v name="QSPIRAL">      0.00000000      0.00000000      0.00000000</v>
    <i type="logical" name="LZEROZ"> F  </i>
   </separator>
   <separator name="electronic exchange-correlation" >
    <i type="logical" name="LASPH"> T  </i>
   </separator>
   <separator name="electronic convergence" >
    <i type="int" name="NELM">    90</i>
    <i type="int" name="NELMDL">     0</i>
    <i type="int" name="NELMIN">     6</i>
    <i name="ENINI">    520.00000000</i>
    <separator name="electronic convergence detail" >
     <i type="logical" name="LDIAG"> T  </i>
     <i type="logical" name="LSUBROT"> F  </i>
     <i name="WEIMIN">      0.00100000</i>
     <i name="EBREAK">      0.00000000</i>
     <i name="DEPER">      0.30000000</i>
     <i type="int" name="NRMM">     4</i>
     <i name="TIME">      0.40000000</i>
    </separator>
   </separator>
   <separator name="electronic mixer" >
    <i name="AMIX">      0.40000000</i>
    <i name="BMIX">      1.00000000</i>
    <i name="AMIN">      0.10000000</i>
    <i name="AMIX_MAG">      1.60000000</i>
    <i name="BMIX_MAG">      1.00000000</i>
    <separator name="electronic mixer details" >
     <i type="int" name="IMIX">     4</i>
     <i type="logical" name="MIXFIRST"> F  </i>
     <i type="int" name="MAXMIX">   -45</i>
     <i name="WC">    100.00000000</i>
     <i type="int" name="INIMIX">     1</i>
     <i type="int" name="MIXPRE">     1</i>
     <i type="int" name="MREMOVE">     5</i>
    </separator>
   </separator>
   <separator name="electronic dipolcorrection" >
    <i type="logical" name="LDIPOL"> F  </i>
    <i type="logical" name="LMONO"> F  </i>
    <i type="int" name="IDIPOL">     0</i>
    <i name="EPSILON">      1.00000000</i>
    <v name="DIPOL">   -100.00000000   -100.00000000   -100.00000000</v>
    <i name="EFIELD">      0.00000000</i>
    <i type="logical" name="LVACPOTAV"> F  </i>
   </separator>
  </separator>
  <separator name="grids" >
   <i type="int" name="NGX">    90</i>
   <i type="int" name="NGY">    90</i>
   <i type="int" name="NGZ">   160</i>
   <i type="int" name="NGXF">   180</i>
   <i type="int" name="NGYF">   180</i>
   <i type="int" name="NGZF">   320</i>
   <i type="logical" name="ADDGRID"> T  </i>
  </separator>
  <separator name="ionic" >
   <i type="int" name="NSW">   300</i>
   <i type="int" name="IBRION">     2</i>
   <i type="int" name="MDALGO">     0</i>
   <i type="int" name="ISIF">     2</i>
   <i name="PSTRESS">      0.00000000</i>
   <i name="EDIFFG">     -0.02000000</i>
   <i type="int" name="NFREE">     1</i>
   <i name="POTIM">      0.50000000</i>
   <i name="SMASS">     -3.00000000</i>
   <i name="SCALEE">      1.00000000</i>
  </separator>
  <separator name="ionic md" >
   <i name="TEBEG">      0.00010000</i>
   <i name="TEEND">      0.00010000</i>
   <i type="int" name="NBLOCK">     1</i>
   <i type="int" name="KBLOCK">   300</i>
   <i type="int" name="NPACO">   256</i>
   <i name="APACO">     10.00000000</i>
  </separator>
  <separator name="symmetry" >
   <i type="int" name="ISYM">     2</i>
   <i name="SYMPREC">      0.00001000</i>
  </separator>
  <separator name="dos" >
   <i type="int" name="LORBIT">     0</i>
   <v name="RWIGS">     -1.00000000     -1.00000000     -1.00000000</v>
   <i type="int" name="NEDOS">   301</i>
   <i name="EMIN">     10.00000000</i>
   <i name="EMAX">    -10.00000000</i>
   <i name="EFERMI">      0.00000000</i>
  </separator>
  <separator name="writing" >
   <i type="int" name="NWRITE">     2</i>
   <i type="logical" name="LWAVE"> F  </i>
   <i type="logical" name="LDOWNSAMPLE"> F  </i>
   <i type="logical" name="LCHARG"> F  </i>
   <i type="logical" name="LPARD"> F  </i>
   <i type="logical" name="LVTOT"> F  </i>
   <i type="logical" name="LVHAR"> F  </i>
   <i type="logical" name="LELF"> F  </i>
   <i type="logical" name="LOPTICS"> F  </i>
   <v name="STM">      0.00000000      0.00000000      0.00000000      0.00000000      0.00000000      0.00000000      0.00000000</v>
  </separator>
  <separator name="performance" >
   <i type="int" name="NPAR">    48</i>
   <i type="int" name="NSIM">     4</i>
   <i type="int" name="NBLK">    -1</i>
   <i type="logical" name="LPLANE"> T  </i>
   <i type="logical" name="LSCALAPACK"> T  </i>
   <i type="logical" name="LSCAAWARE"> T  </i>
   <i type="logical" name="LSCALU"> F  </i>
   <i type="logical" name="LASYNC"> F  </i>
   <i type="logical" name="LORBITALREAL"> F  </i>
  </separator>
  <separator name="miscellaneous" >
   <i type="int" name="IDIOT">     3</i>
   <i type="int" name="PHON_NSTRUCT">    -1</i>
   <i type="logical" name="LMUSIC"> F  </i>
   <v name="POMASS">    192.22000000    140.11500000     16.00000000</v>
   <v name="DARWINR">      0.00000000      0.00000000      0.00000000</v>
   <v name="DARWINV">      1.00000000      1.00000000      1.00000000</v>
   <i type="logical" name="LCORR"> T  </i>
  </separator>
  <i type="logical" name="GGA_COMPAT"> T  </i>
  <i type="logical" name="LBERRY"> F  </i>
  <i type="int" name="ICORELEVEL">     0</i>
  <i type="logical" name="LDAU"> T  </i>
  <v type="int" name="LDAUTYPE">     2</v>
  <v type="int" name="LDAUL">     2</v>
  <v name="LDAUU">      2.00000000</v>
  <v name="LDAUJ">      0.00000000</v>
  <i type="int" name="LDAUPRINT">     0</i>
  <i type="int" name="I_CONSTRAINED_M">     0</i>
  <separator name="electronic exchange-correlation" >
   <i type="string" name="GGA    ">PE</i>
   <i type="string" name="XC_C">1</i>
   <i type="int" name="VOSKOWN">     0</i>
   <i type="logical" name="LHFCALC"> F  </i>
   <i type="string" name="PRECFOCK"></i>
   <i type="logical" name="LSYMGRAD"> F  </i>
   <i type="logical" name="LHFONE"> F  </i>
   <i type="logical" name="LRHFCALC"> F  </i>
   <i type="logical" name="LTHOMAS"> F  </i>
   <i type="logical" name="LMODELHF"> F  </i>
   <i type="logical" name="LFOCKACE"> F  </i>
   <i name="ENCUT4O">     -1.00000000</i>
   <i type="int" name="EXXOEP">     0</i>
   <i type="int" name="FOURORBIT">     0</i>
   <i name="AEXX">      0.00000000</i>
   <i name="HFALPHA">      0.00000000</i>
   <i name="MCALPHA">      0.00000000</i>
   <i name="ALDAX">      1.00000000</i>
   <i name="AGGAX">      1.00000000</i>
   <i name="AMGGAX">      1.00000000</i>
   <i name="ALDAC">      1.00000000</i>
   <i name="AGGAC">      1.00000000</i>
   <i name="AMGGAC">      1.00000000</i>
   <i type="int" name="NKREDX">     1</i>
   <i type="int" name="NKREDY">     1</i>
   <i type="int" name="NKREDZ">     1</i>
   <i type="logical" name="SHIFTRED"> F  </i>
   <i type="logical" name="ODDONLY"> F  </i>
   <i type="logical" name="EVENONLY"> F  </i>
   <i type="int" name="LMAXFOCK">     0</i>
   <i type="int" name="NMAXFOCKAE">     0</i>
   <i type="logical" name="LFOCKAEDFT"> F  </i>
   <i name="HFSCREEN">      0.00000000</i>
   <i name="HFSCREENC">      0.00000000</i>
   <i type="int" name="NBANDSGWLOW">     0</i>
  </separator>
  <separator name="vdW DFT" >
   <i type="logical" name="LUSE_VDW"> F  </i>
   <i type="int" name="IVDW_NL">    -1</i>
   <i type="logical" name="LSPIN_VDW"> F  </i>
   <i name="ZAB_VDW">     -0.84910000</i>
   <i name="GAMMA_VDW">      1.39626340</i>
   <i name="ALPHA_VDW">      0.00000000</i>
   <i name="PARAM1">      0.12340000</i>
   <i name="PARAM2">      1.00000000</i>
   <i name="BPARAM">      6.30000000</i>
   <i name="CPARAM">      0.00930000</i>
  </separator>
  <separator name="model GW" >
   <i type="int" name="MODEL_GW">     0</i>
   <i name="MODEL_EPS0">     16.34690435</i>
   <i name="MODEL_ALPHA">      1.00000000</i>
  </separator>
  <separator name="linear response parameters" >
   <i type="logical" name="LEPSILON"> F  </i>
   <i type="logical" name="LRPA"> F  </i>
   <i type="logical" name="LNABLA"> F  </i>
   <i type="logical" name="LVEL"> F  </i>
   <i name="CSHIFT">      0.10000000</i>
   <i name="OMEGAMAX">     -1.00000000</i>
   <i name="DEG_THRESHOLD">      0.00200000</i>
   <i name="RTIME">     -0.10000000</i>
   <i name="WPLASMAI">      0.00000000</i>
   <v name="DFIELD">      0.00000000      0.00000000      0.00000000</v>
   <v name="WPLASMA">      0.00000000      0.00000000      0.00000000      0.00000000      0.00000000      0.00000000      0.00000000      0.00000000      0.00000000</v>
  </separator>
  <separator name="orbital magnetization" >
   <i type="logical" name="NUCIND"> F  </i>
   <v name="MAGPOS">      0.00000000      0.00000000      0.00000000</v>
   <i type="logical" name="LNICSALL"> T  </i>
   <i type="logical" name="ORBITALMAG"> F  </i>
   <i type="logical" name="LMAGBLOCH"> F  </i>
   <i type="logical" name="LCHIMAG"> F  </i>
   <i type="logical" name="LGAUGE"> T  </i>
   <i type="int" name="MAGATOM">     0</i>
   <v name="MAGDIPOL">      0.00000000      0.00000000      0.00000000</v>
   <v name="AVECCONST">      0.00000000      0.00000000      0.00000000</v>
  </separator>
  <separator name="response functions" >
   <i type="logical" name="LALL_IN_ONE"> F  </i>
   <i type="int" name="IALL_IN_ONE">    -1</i>
   <i type="int" name="NBANDS_WAVE">    -1</i>
   <i type="logical" name="LFINITE_TEMPERATURE"> F  </i>
   <i type="logical" name="LADDER"> F  </i>
   <i type="logical" name="LRPAFORCE"> F  </i>
   <i type="logical" name="LFXC"> F  </i>
   <i type="logical" name="LHARTREE"> T  </i>
   <i type="int" name="IBSE">     0</i>
   <v type="int" name="KPOINT">    -1     0     0     0</v>
   <i type="logical" name="LTCTC"> F  </i>
   <i type="logical" name="LTCTE"> F  </i>
   <i type="logical" name="LTETE"> F  </i>
   <i type="logical" name="LTRIPLET"> F  </i>
   <i type="logical" name="LFXCEPS"> F  </i>
   <i type="logical" name="LFXHEG"> F  </i>
   <i type="int" name="NATURALO">     2</i>
   <i type="logical" name="LHOLEGF"> F  </i>
   <i type="logical" name="L2ORDER"> F  </i>
   <i type="logical" name="LDMP1"> F  </i>
   <i type="logical" name="LMP2LT"> F  </i>
   <i type="logical" name="LSMP2LT"> F  </i>
   <i type="logical" name="LGWLF"> F  </i>
   <i name="ENCUTGW">     -1.60000002</i>
   <i name="ENCUTGWSOFT">     -1.60000002</i>
   <i name="ENCUTLF">     -1.00000000</i>
   <i type="logical" name="ESF_SPLINES"> F  </i>
   <i name="ESF_CONV">      0.01000000</i>
   <i type="int" name="ESF_NINTER">    15</i>
   <i type="int" name="LMAXMP2">    -1</i>
   <i name="SCISSOR">      0.00000000</i>
   <i type="int" name="NOMEGA">     0</i>
   <i type="int" name="NOMEGAR">     0</i>
   <i type="int" name="NBANDSGW">    -1</i>
   <i type="int" name="NBANDSO">    -1</i>
   <i type="int" name="NBANDSV">    -1</i>
   <i type="int" name="NELMGW">     1</i>
   <i type="int" name="NELMHF">     1</i>
   <i type="int" name="DIM">     3</i>
   <i type="int" name="IESPILON">     4</i>
   <i type="int" name="ANTIRES">     0</i>
   <i name="OMEGAMAX">    -30.00000000</i>
   <i name="OMEGAMIN">    -30.00000000</i>
   <i name="OMEGATL">   -200.00000000</i>
   <i type="int" name="OMEGAGRID">     0</i>
   <i name="CSHIFT">     -0.10000000</i>
   <i type="logical" name="LSELFENERGY"> F  </i>
   <i type="logical" name="LSPECTRAL"> F  </i>
   <i type="logical" name="LSPECTRALGW"> F  </i>
   <i type="logical" name="LSINGLES"> F  </i>
   <i type="logical" name="LFERMIGW"> F  </i>
   <i type="logical" name="ODDONLYGW"> F  </i>
   <i type="logical" name="EVENONLYGW"> F  </i>
   <i type="int" name="NKREDLFX">     1</i>
   <i type="int" name="NKREDLFY">     1</i>
   <i type="int" name="NKREDLFZ">     1</i>
   <i type="int" name="MAXMEM">  2800</i>
   <i type="int" name="TELESCOPE">     0</i>
   <i type="int" name="NTAUPAR">    -1</i>
   <i type="int" name="NOMEGAPAR">    -1</i>
   <i name="DAMP_NEWTON">      0.80000001</i>
   <i name="LAMBDA">      1.00000000</i>
  </separator>
  <separator name="External order field" >
   <i name="OFIELD_KAPPA">      0.00000000</i>
   <v name="OFIELD_K">      0.00000000      0.00000000      0.00000000</v>
   <i name="OFIELD_Q6_NEAR">      0.00000000</i>
   <i name="OFIELD_Q6_FAR">      0.00000000</i>
   <i name="OFIELD_A">      0.00000000</i>
  </separator>
  <separator name="optional k-points parameters" >
   <i type="int" name="KPOINTS_OPT_MODE">     1</i>
   <i type="logical" name="LKPOINTS_OPT"> F  </i>
  </separator>
 </parameters>
 <atominfo>
  <atoms>      90 </atoms>
  <types>       3 </types>
  <array name="atoms" >
   <dimension dim="1">ion</dimension>
   <field type="string">element</field>
   <field type="int">atomtype</field>
   <set>
    <rc><c>Ir</c><c>   1</c></rc>
    <rc><c>Ir</c><c>   1</c></rc>
    <rc><c>Ir</c><c>   1</c></rc>
    <rc><c>Ir</c><c>   1</c></rc>
    <rc><c>Ir</c><c>   1</c></rc>
    <rc><c>Ir</c><c>   1</c></rc>
    <rc><c>Ce</c><c>   2</c></rc>
    <rc><c>Ce</c><c>   2</c></rc>
    <rc><c>Ce</c><c>   2</c></rc>
    <rc><c>Ce</c><c>   2</c></rc>
    <rc><c>Ce</c><c>   2</c></rc>
    <rc><c>Ce</c><c>   2</c></rc>
    <rc><c>Ce</c><c>   2</c></rc>
    <rc><c>Ce</c><c>   2</c></rc>
    <rc><c>Ce</c><c>   2</c></rc>
    <rc><c>Ce</c><c>   2</c></rc>
    <rc><c>Ce</c><c>   2</c></rc>
    <rc><c>Ce</c><c>   2</c></rc>
    <rc><c>Ce</c><c>   2</c></rc>
    <rc><c>Ce</c><c>   2</c></rc>
    <rc><c>Ce</c><c>   2</c></rc>
    <rc><c>Ce</c><c>   2</c></rc>
    <rc><c>Ce</c><c>   2</c></rc>
    <rc><c>Ce</c><c>   2</c></rc>
    <rc><c>Ce</c><c>   2</c></rc>
    <rc><c>Ce</c><c>   2</c></rc>
    <rc><c>Ce</c><c>   2</c></rc>
    <rc><c>O </c><c>   3</c></rc>
    <rc><c>O </c><c>   3</c></rc>
    <rc><c>O </c><c>   3</c></rc>
    <rc><c>O </c><c>   3</c></rc>
    <rc><c>O </c><c>   3</c></rc>
    <rc><c>O </c><c>   3</c></rc>
    <rc><c>O </c><c>   3</c></rc>
    <rc><c>O </c><c>   3</c></rc>
    <rc><c>O </c><c>   3</c></rc>
    <rc><c>O </c><c>   3</c></rc>
    <rc><c>O </c><c>   3</c></rc>
    <rc><c>O </c><c>   3</c></rc>
    <rc><c>O </c><c>   3</c></rc>
    <rc><c>O </c><c>   3</c></rc>
    <rc><c>O </c><c>   3</c></rc>
    <rc><c>O </c><c>   3</c></rc>
    <rc><c>O </c><c>   3</c></rc>
    <rc><c>O </c><c>   3</c></rc>
    <rc><c>O </c><c>   3</c></rc>
    <rc><c>O </c><c>   3</c></rc>
    <rc><c>O </c><c>   3</c></rc>
    <rc><c>O </c><c>   3</c></rc>
    <rc><c>O </c><c>   3</c></rc>
    <rc><c>O </c><c>   3</c></rc>
    <rc><c>O </c><c>   3</c></rc>
    <rc><c>O </c><c>   3</c></rc>
    <rc><c>O </c><c>   3</c></rc>
    <rc><c>O </c><c>   3</c></rc>
    <rc><c>O </c><c>   3</c></rc>
    <rc><c>O </c><c>   3</c></rc>
    <rc><c>O </c><c>   3</c></rc>
    <rc><c>O </c><c>   3</c></rc>
    <rc><c>O </c><c>   3</c></rc>
    <rc><c>O </c><c>   3</c></rc>
    <rc><c>O </c><c>   3</c></rc>
    <rc><c>O </c><c>   3</c></rc>
    <rc><c>O </c><c>   3</c></rc>
    <rc><c>O </c><c>   3</c></rc>
    <rc><c>O </c><c>   3</c></rc>
    <rc><c>O </c><c>   3</c></rc>
    <rc><c>O </c><c>   3</c></rc>
    <rc><c>O </c><c>   3</c></rc>
    <rc><c>O </c><c>   3</c></rc>
    <rc><c>O </c><c>   3</c></rc>
    <rc><c>O </c><c>   3</c></rc>
    <rc><c>O </c><c>   3</c></rc>
    <rc><c>O </c><c>   3</c></rc>
    <rc><c>O </c><c>   3</c></rc>
    <rc><c>O </c><c>   3</c></rc>
    <rc><c>O </c><c>   3</c></rc>
    <rc><c>O </c><c>   3</c></rc>
    <rc><c>O </c><c>   3</c></rc>
    <rc><c>O </c><c>   3</c></rc>
    <rc><c>O </c><c>   3</c></rc>
    <rc><c>O </c><c>   3</c></rc>
    <rc><c>O </c><c>   3</c></rc>
    <rc><c>O </c><c>   3</c></rc>
    <rc><c>O </c><c>   3</c></rc>
    <rc><c>O </c><c>   3</c></rc>
    <rc><c>O </c><c>   3</c></rc>
    <rc><c>O </c><c>   3</c></rc>
    <rc><c>O </c><c>   3</c></rc>
    <rc><c>O </c><c>   3</c></rc>
   </set>
  </array>
  <array name="atomtypes" >
   <dimension dim="1">type</dimension>
   <field type="int">atomspertype</field>
   <field type="string">element</field>
   <field>mass</field>
   <field>valence</field>
   <field type="string">pseudopotential</field>
   <set>
    <rc><c>   6</c><c>Ir</c><c>    192.22000000</c><c>      9.00000000</c><c>  PAW_PBE Ir 06Sep2000                  </c></rc>
    <rc><c>  21</c><c>Ce</c><c>    140.11500000</c><c>     12.00000000</c><c>  PAW_PBE Ce 23Dec2003                  </c></rc>
    <rc><c>  63</c><c>O </c><c>     16.00000000</c><c>      6.00000000</c><c>  PAW_PBE O 08Apr2002                   </c></rc>
   </set>
  </array>
 </atominfo>
 <structure name="initialpos" >
  <crystal>
   <varray name="basis" >
    <v>      11.59820000       0.00000000       0.00000000 </v>
    <v>      -5.79910000      10.04433584       0.00000000 </v>
    <v>       0.00000000       0.00000000      21.04820000 </v>
   </varray>
   <i name="volume">   2452.03565189 </i>
   <varray name="rec_basis" >
    <v>       0.08622028       0.04977930       0.00000000 </v>
    <v>       0.00000000       0.09955860       0.00000000 </v>
    <v>       0.00000000       0.00000000       0.04751000 </v>
   </varray>
  </crystal>
  <varray name="positions" >
   <v>       0.01288581       0.98711419       0.47544940 </v>
   <v>       0.74885073       0.97876428       0.44815154 </v>
   <v>       0.02123572       0.25114927       0.44815154 </v>
   <v>       0.34511232       0.30755772       0.44389590 </v>
   <v>       0.31696110       0.68303890       0.47077537 </v>
   <v>       0.69244228       0.65488768       0.44389590 </v>
   <v>       0.21741786       0.10711109       0.30665307 </v>
   <v>       0.11111000       0.22222000       0.15999000 </v>
   <v>       0.32803094       0.01091681       0.46143500 </v>
   <v>       0.55350581       0.11328923       0.31742103 </v>
   <v>       0.44444000       0.22222000       0.15999000 </v>
   <v>       0.88820501       0.11179499       0.30514433 </v>
   <v>       0.77778000       0.22222000       0.15999000 </v>
   <v>       0.21862411       0.44020651       0.31427904 </v>
   <v>       0.11111000       0.55556000       0.15999000 </v>
   <v>       0.55644761       0.44355239       0.30670625 </v>
   <v>       0.44444000       0.55556000       0.15999000 </v>
   <v>       0.65690219       0.34309781       0.46304362 </v>
   <v>       0.88671077       0.44649419       0.31742103 </v>
   <v>       0.77778000       0.55556000       0.15999000 </v>
   <v>       0.98908319       0.67196906       0.46143500 </v>
   <v>       0.21943359       0.78056641       0.31252358 </v>
   <v>       0.11111000       0.88889000       0.15999000 </v>
   <v>       0.55979349       0.78137589       0.31427904 </v>
   <v>       0.44444000       0.88889000       0.15999000 </v>
   <v>       0.89288891       0.78258214       0.30665307 </v>
   <v>       0.77778000       0.88889000       0.15999000 </v>
   <v>       0.00000000       0.00000000       0.12250000 </v>
   <v>       0.11856339       0.23684609       0.27603617 </v>
   <v>       0.19719036       0.10449913       0.42901202 </v>
   <v>       0.11111000       0.22222000       0.04751000 </v>
   <v>       0.07023891       0.16637800       0.51358775 </v>
   <v>       0.00173791       0.99826209       0.31900965 </v>
   <v>       0.22222000       0.11111000       0.19748000 </v>
   <v>       0.33333000       0.00000000       0.12250000 </v>
   <v>       0.44450080       0.21999495       0.27412739 </v>
   <v>       0.53337423       0.11496237       0.42913599 </v>
   <v>       0.44444000       0.22222000       0.04751000 </v>
   <v>       0.41954731       0.23452008       0.49658177 </v>
   <v>       0.32653200       0.00430078       0.35299411 </v>
   <v>       0.55556000       0.11111000       0.19748000 </v>
   <v>       0.66667000       0.00000000       0.12250000 </v>
   <v>       0.77359705       0.22640295       0.27862218 </v>
   <v>       0.93256697       0.06743303       0.41462531 </v>
   <v>       0.77778000       0.22222000       0.04751000 </v>
   <v>       0.83120994       0.16879006       0.47055048 </v>
   <v>       0.67569827       0.00348814       0.35984982 </v>
   <v>       0.88889000       0.11111000       0.19748000 </v>
   <v>       0.00000000       0.33333000       0.12250000 </v>
   <v>       0.11800478       0.55842051       0.28402406 </v>
   <v>       0.20611368       0.36892922       0.43277807 </v>
   <v>       0.11111000       0.55556000       0.04751000 </v>
   <v>       0.16013815       0.57868113       0.50840418 </v>
   <v>       0.99651186       0.32430173       0.35984982 </v>
   <v>       0.22222000       0.44444000       0.19748000 </v>
   <v>       0.33333000       0.33333000       0.12250000 </v>
   <v>       0.43947828       0.56052172       0.28067215 </v>
   <v>       0.53503662       0.46496338       0.43060084 </v>
   <v>       0.44444000       0.55556000       0.04751000 </v>
   <v>       0.40395872       0.59604128       0.48736535 </v>
   <v>       0.33906216       0.32876524       0.35229585 </v>
   <v>       0.55556000       0.44444000       0.19748000 </v>
   <v>       0.66667000       0.33333000       0.12250000 </v>
   <v>       0.78000505       0.55549920       0.27412739 </v>
   <v>       0.88503763       0.46662577       0.42913599 </v>
   <v>       0.77778000       0.55556000       0.04751000 </v>
   <v>       0.76547992       0.58045269       0.49658177 </v>
   <v>       0.65784121       0.34215879       0.35082631 </v>
   <v>       0.88889000       0.44444000       0.19748000 </v>
   <v>       0.00000000       0.66667000       0.12250000 </v>
   <v>       0.11799829       0.88200171       0.27323662 </v>
   <v>       0.21850749       0.78149251       0.42969420 </v>
   <v>       0.11111000       0.88889000       0.04751000 </v>
   <v>       0.10544868       0.89455132       0.50897799 </v>
   <v>       0.99569922       0.67346800       0.35299411 </v>
   <v>       0.22222000       0.77778000       0.19748000 </v>
   <v>       0.33333000       0.66667000       0.12250000 </v>
   <v>       0.44157949       0.88199522       0.28402406 </v>
   <v>       0.63107078       0.79388632       0.43277807 </v>
   <v>       0.44444000       0.88889000       0.04751000 </v>
   <v>       0.42131887       0.83986185       0.50840418 </v>
   <v>       0.34007149       0.65992851       0.38209866 </v>
   <v>       0.55556000       0.77778000       0.19748000 </v>
   <v>       0.66667000       0.66667000       0.12250000 </v>
   <v>       0.76315391       0.88143661       0.27603617 </v>
   <v>       0.89550087       0.80280964       0.42901202 </v>
   <v>       0.77778000       0.88889000       0.04751000 </v>
   <v>       0.83362200       0.92976109       0.51358775 </v>
   <v>       0.67123476       0.66093784       0.35229585 </v>
   <v>       0.88889000       0.77778000       0.19748000 </v>
  </varray>
  <varray name="selective"  type="logical" >
   <v type="logical" >  T  T  T </v>
   <v type="logical" >  T  T  T </v>
   <v type="logical" >  T  T  T </v>
   <v type="logical" >  T  T  T </v>
   <v type="logical" >  T  T  T </v>
   <v type="logical" >  T  T  T </v>
   <v type="logical" >  T  T  T </v>
   <v type="logical" >  F  F  F </v>
   <v type="logical" >  T  T  T </v>
   <v type="logical" >  T  T  T </v>
   <v type="logical" >  F  F  F </v>
   <v type="logical" >  T  T  T </v>
   <v type="logical" >  F  F  F </v>
   <v type="logical" >  T  T  T </v>
   <v type="logical" >  F  F  F </v>
   <v type="logical" >  T  T  T </v>
   <v type="logical" >  F  F  F </v>
   <v type="logical" >  T  T  T </v>
   <v type="logical" >  T  T  T </v>
   <v type="logical" >  F  F  F </v>
   <v type="logical" >  T  T  T </v>
   <v type="logical" >  T  T  T </v>
   <v type="logical" >  F  F  F </v>
   <v type="logical" >  T  T  T </v>
   <v type="logical" >  F  F  F </v>
   <v type="logical" >  T  T  T </v>
   <v type="logical" >  F  F  F </v>
   <v type="logical" >  F  F  F </v>
   <v type="logical" >  T  T  T </v>
   <v type="logical" >  T  T  T </v>
   <v type="logical" >  F  F  F </v>
   <v type="logical" >  T  T  T </v>
   <v type="logical" >  T  T  T </v>
   <v type="logical" >  F  F  F </v>
   <v type="logical" >  F  F  F </v>
   <v type="logical" >  T  T  T </v>
   <v type="logical" >  T  T  T </v>
   <v type="logical" >  F  F  F </v>
   <v type="logical" >  T  T  T </v>
   <v type="logical" >  T  T  T </v>
   <v type="logical" >  F  F  F </v>
   <v type="logical" >  F  F  F </v>
   <v type="logical" >  T  T  T </v>
   <v type="logical" >  T  T  T </v>
   <v type="logical" >  F  F  F </v>
   <v type="logical" >  T  T  T </v>
   <v type="logical" >  T  T  T </v>
   <v type="logical" >  F  F  F </v>
   <v type="logical" >  F  F  F </v>
   <v type="logical" >  T  T  T </v>
   <v type="logical" >  T  T  T </v>
   <v type="logical" >  F  F  F </v>
   <v type="logical" >  T  T  T </v>
   <v type="logical" >  T  T  T </v>
   <v type="logical" >  F  F  F </v>
   <v type="logical" >  F  F  F </v>
   <v type="logical" >  T  T  T </v>
   <v type="logical" >  T  T  T </v>
   <v type="logical" >  F  F  F </v>
   <v type="logical" >  T  T  T </v>
   <v type="logical" >  T  T  T </v>
   <v type="logical" >  F  F  F </v>
   <v type="logical" >  F  F  F </v>
   <v type="logical" >  T  T  T </v>
   <v type="logical" >  T  T  T </v>
   <v type="logical" >  F  F  F </v>
   <v type="logical" >  T  T  T </v>
   <v type="logical" >  T  T  T </v>
   <v type="logical" >  F  F  F </v>
   <v type="logical" >  F  F  F </v>
   <v type="logical" >  T  T  T </v>
   <v type="logical" >  T  T  T </v>
   <v type="logical" >  F  F  F </v>
   <v type="logical" >  T  T  T </v>
   <v type="logical" >  T  T  T </v>
   <v type="logical" >  F  F  F </v>
   <v type="logical" >  F  F  F </v>
   <v type="logical" >  T  T  T </v>
   <v type="logical" >  T  T  T </v>
   <v type="logical" >  F  F  F </v>
   <v type="logical" >  T  T  T </v>
   <v type="logical" >  T  T  T </v>
   <v type="logical" >  F  F  F </v>
   <v type="logical" >  F  F  F </v>
   <v type="logical" >  T  T  T </v>
   <v type="logical" >  T  T  T </v>
   <v type="logical" >  F  F  F </v>
   <v type="logical" >  T  T  T </v>
   <v type="logical" >  T  T  T </v>
   <v type="logical" >  F  F  F </v>
  </varray>
  <nose>
   <v>      -3.00000000       0.00000000       0.00010000       0.00010000 </v>
  </nose>
 </structure>
 <calculation>
  <scstep>
   <time name="dav">   16.77   16.82</time>
   <time name="total">   18.20   18.29</time>
   <energy>
    <i name="alphaZ">   1646.47971768 </i>
    <i name="ewald"> 126613.02108303 </i>
    <i name="hartreedc">-175563.77686542 </i>
    <i name="XCdc">   1743.96439406 </i>
    <i name="pawpsdc">  43004.07676644 </i>
    <i name="pawaedc"> -42332.39009753 </i>
    <i name="eentropy">     -0.03152226 </i>
    <i name="bandstr">   2562.62020452 </i>
    <i name="atom">  52924.17385108 </i>
    <i name="e_fr_energy">  10598.13753160 </i>
    <i name="e_wo_entrp">  10598.16905386 </i>
    <i name="e_0_energy">  10598.15329273 </i>
   </energy>
  </scstep>
  <scstep>
   <time name="dav">   18.15   18.16</time>
   <time name="total">   18.16   18.17</time>
   <energy>
    <i name="e_fr_energy">   2708.74057206 </i>
    <i name="e_wo_entrp">   2708.91155024 </i>
    <i name="e_0_energy">   2708.82606115 </i>
   </energy>
  </scstep>
  <scstep>
   <time name="dav">   20.92   20.94</time>
   <time name="total">   20.93   20.94</time>
   <energy>
    <i name="e_fr_energy">   -426.54438395 </i>
    <i name="e_wo_entrp">   -426.51940702 </i>
    <i name="e_0_energy">   -426.53189548 </i>
   </energy>
  </scstep>
  <scstep>
   <time name="dav">   23.26   23.27</time>
   <time name="total">   23.26   23.28</time>
   <energy>
    <i name="e_fr_energy">   -829.63637502 </i>
    <i name="e_wo_entrp">   -829.61667464 </i>
    <i name="e_0_energy">   -829.62652483 </i>
   </energy>
  </scstep>
  <scstep>
   <time name="dav">   26.21   26.22</time>
   <time name="total">   27.74   27.76</time>
   <energy>
    <i name="e_fr_energy">   -847.32353747 </i>
    <i name="e_wo_entrp">   -847.30870198 </i>
    <i name="e_0_energy">   -847.31611973 </i>
   </energy>
  </scstep>
  <scstep>
   <time name="dav">   26.10   26.11</time>
   <time name="total">   28.93   28.94</time>
   <energy>
    <i name="e_fr_energy">  -1402.21663927 </i>
    <i name="e_wo_entrp">  -1402.07227334 </i>
    <i name="e_0_energy">  -1402.14445631 </i>
   </energy>
  </scstep>
  <scstep>
   <time name="dav">   22.80   22.82</time>
   <time name="total">   25.64   25.65</time>
   <energy>
    <i name="e_fr_energy">  -1207.31991635 </i>
    <i name="e_wo_entrp">  -1207.20006064 </i>
    <i name="e_0_energy">  -1207.25998850 </i>
   </energy>
  </scstep>
  <scstep>
   <time name="dav">   26.16   26.17</time>
   <time name="total">   28.97   28.99</time>
   <energy>
    <i name="e_fr_energy">  -1291.01155988 </i>
    <i name="e_wo_entrp">  -1290.95195241 </i>
    <i name="e_0_energy">  -1290.98175615 </i>
   </energy>
  </scstep>
  <scstep>
   <time name="dav">   23.15   23.16</time>
   <time name="total">   25.99   26.01</time>
   <energy>
    <i name="e_fr_energy">  -1226.23894173 </i>
    <i name="e_wo_entrp">  -1226.18275661 </i>
    <i name="e_0_energy">  -1226.21084917 </i>
   </energy>
  </scstep>
  <scstep>
   <time name="dav">   23.61   23.63</time>
   <time name="total">   26.47   26.49</time>
   <energy>
    <i name="e_fr_energy">  -1443.69600365 </i>
    <i name="e_wo_entrp">  -1443.59548916 </i>
    <i name="e_0_energy">  -1443.64574640 </i>
   </energy>
  </scstep>
  <scstep>
   <time name="dav">   25.45   25.46</time>
   <time name="total">   28.26   28.28</time>
   <energy>
    <i name="e_fr_energy">  -1066.57604754 </i>
    <i name="e_wo_entrp">  -1066.49713261 </i>
    <i name="e_0_energy">  -1066.53659008 </i>
   </energy>
  </scstep>
  <scstep>
   <time name="dav">   24.11   24.12</time>
   <time name="total">   26.97   26.98</time>
   <energy>
    <i name="e_fr_energy">   -641.81772105 </i>
    <i name="e_wo_entrp">   -641.73117938 </i>
    <i name="e_0_energy">   -641.77445021 </i>
   </energy>
  </scstep>
  <scstep>
   <time name="dav">   25.35   25.37</time>
   <time name="total">   28.18   28.20</time>
   <energy>
    <i name="e_fr_energy">   -727.44623701 </i>
    <i name="e_wo_entrp">   -727.37496162 </i>
    <i name="e_0_energy">   -727.41059931 </i>
   </energy>
  </scstep>
  <scstep>
   <time name="dav">   23.63   23.65</time>
   <time name="total">   26.46   26.48</time>
   <energy>
    <i name="e_fr_energy">   -616.75255689 </i>
    <i name="e_wo_entrp">   -616.65746179 </i>
    <i name="e_0_energy">   -616.70500934 </i>
   </energy>
  </scstep>
  <scstep>
   <time name="dav">   26.53   26.54</time>
   <time name="total">   29.38   29.39</time>
   <energy>
    <i name="e_fr_energy">   -607.26896528 </i>
    <i name="e_wo_entrp">   -607.19905241 </i>
    <i name="e_0_energy">   -607.23400885 </i>
   </energy>
  </scstep>
  <scstep>
   <time name="dav">   22.66   22.68</time>
   <time name="total">   25.48   25.50</time>
   <energy>
    <i name="e_fr_energy">   -613.78206936 </i>
    <i name="e_wo_entrp">   -613.72102606 </i>
    <i name="e_0_energy">   -613.75154771 </i>
   </energy>
  </scstep>
  <scstep>
   <time name="dav">   25.66   25.68</time>
   <time name="total">   28.48   28.50</time>
   <energy>
    <i name="e_fr_energy">   -608.46764717 </i>
    <i name="e_wo_entrp">   -608.40096097 </i>
    <i name="e_0_energy">   -608.43430407 </i>
   </energy>
  </scstep>
  <scstep>
   <time name="dav">   25.78   25.80</time>
   <time name="total">   28.61   28.63</time>
   <energy>
    <i name="e_fr_energy">   -608.70657155 </i>
    <i name="e_wo_entrp">   -608.57810694 </i>
    <i name="e_0_energy">   -608.64233925 </i>
   </energy>
  </scstep>
  <scstep>
   <time name="dav">   21.17   21.19</time>
   <time name="total">   24.02   24.04</time>
   <energy>
    <i name="e_fr_energy">   -609.34682958 </i>
    <i name="e_wo_entrp">   -609.14100648 </i>
    <i name="e_0_energy">   -609.24391803 </i>
   </energy>
  </scstep>
  <scstep>
   <time name="dav">   22.75   22.76</time>
   <time name="total">   25.59   25.61</time>
   <energy>
    <i name="e_fr_energy">   -609.19983171 </i>
    <i name="e_wo_entrp">   -609.10615225 </i>
    <i name="e_0_energy">   -609.15299198 </i>
   </energy>
  </scstep>
  <scstep>
   <time name="dav">   26.07   26.08</time>
   <time name="total">   28.94   28.96</time>
   <energy>
    <i name="e_fr_energy">   -614.36397758 </i>
    <i name="e_wo_entrp">   -614.28216928 </i>
    <i name="e_0_energy">   -614.32307343 </i>
   </energy>
  </scstep>
  <scstep>
   <time name="dav">   25.60   25.61</time>
   <time name="total">   28.43   28.45</time>
   <energy>
    <i name="e_fr_energy">   -623.29988936 </i>
    <i name="e_wo_entrp">   -623.18779576 </i>
    <i name="e_0_energy">   -623.24384256 </i>
   </energy>
  </scstep>
  <scstep>
   <time name="dav">   23.81   23.82</time>
   <time name="total">   26.66   26.68</time>
   <energy>
    <i name="e_fr_energy">   -633.64438285 </i>
    <i name="e_wo_entrp">   -633.55883671 </i>
    <i name="e_0_energy">   -633.60160978 </i>
   </energy>
  </scstep>
  <scstep>
   <time name="dav">   25.86   25.87</time>
   <time name="total">   28.71   28.72</time>
   <energy>
    <i name="e_fr_energy">   -629.10029646 </i>
    <i name="e_wo_entrp">   -628.99824692 </i>
    <i name="e_0_energy">   -629.04927169 </i>
   </energy>
  </scstep>
  <scstep>
   <time name="dav">   24.62   24.64</time>
   <time name="total">   27.47   27.48</time>
   <energy>
    <i name="e_fr_energy">   -627.14572954 </i>
    <i name="e_wo_entrp">   -627.06351201 </i>
    <i name="e_0_energy">   -627.10462077 </i>
   </energy>
  </scstep>
  <scstep>
   <time name="dav">   23.55   23.56</time>
   <time name="total">   26.37   26.39</time>
   <energy>
    <i name="e_fr_energy">   -627.04858639 </i>
    <i name="e_wo_entrp">   -626.96980464 </i>
    <i name="e_0_energy">   -627.00919552 </i>
   </energy>
  </scstep>
  <scstep>
   <time name="dav">   24.61   24.62</time>
   <time name="total">   27.46   27.47</time>
   <energy>
    <i name="e_fr_energy">   -620.20109530 </i>
    <i name="e_wo_entrp">   -620.12973970 </i>
    <i name="e_0_energy">   -620.16541750 </i>
   </energy>
  </scstep>
  <scstep>
   <time name="dav">   24.79   24.81</time>
   <time name="total">   27.65   27.66</time>
   <energy>
    <i name="e_fr_energy">   -615.31425091 </i>
    <i name="e_wo_entrp">   -615.19410545 </i>
    <i name="e_0_energy">   -615.25417818 </i>
   </energy>
  </scstep>
  <scstep>
   <time name="dav">   26.56   26.57</time>
   <time name="total">   29.38   29.39</time>
   <energy>
    <i name="e_fr_energy">   -617.15057341 </i>
    <i name="e_wo_entrp">   -617.04321639 </i>
    <i name="e_0_energy">   -617.09689490 </i>
   </energy>
  </scstep>
  <scstep>
   <time name="dav">   24.09   24.10</time>
   <time name="total">   26.92   26.93</time>
   <energy>
    <i name="e_fr_energy">   -620.87508144 </i>
    <i name="e_wo_entrp">   -620.75372072 </i>
    <i name="e_0_energy">   -620.81440108 </i>
   </energy>
  </scstep>
  <scstep>
   <time name="dav">   22.26   22.27</time>
   <time name="total">   25.07   25.09</time>
   <energy>
    <i name="e_fr_energy">   -621.43914571 </i>
    <i name="e_wo_entrp">   -621.32545741 </i>
    <i name="e_0_energy">   -621.38230156 </i>
   </energy>
  </scstep>
  <scstep>
   <time name="dav">   27.87   27.88</time>
   <time name="total">   30.71   30.73</time>
   <energy>
    <i name="e_fr_energy">   -621.50847162 </i>
    <i name="e_wo_entrp">   -621.39531314 </i>
    <i name="e_0_energy">   -621.45189238 </i>
   </energy>
  </scstep>
  <scstep>
   <time name="dav">   24.79   24.81</time>
   <time name="total">   27.61   27.62</time>
   <energy>
    <i name="e_fr_energy">   -621.68570727 </i>
    <i name="e_wo_entrp">   -621.57699480 </i>
    <i name="e_0_energy">   -621.63135103 </i>
   </energy>
  </scstep>
  <scstep>
   <time name="dav">   24.06   24.07</time>
   <time name="total">   26.88   26.89</time>
   <energy>
    <i name="e_fr_energy">   -621.40399572 </i>
    <i name="e_wo_entrp">   -621.29473908 </i>
    <i name="e_0_energy">   -621.34936740 </i>
   </energy>
  </scstep>
  <scstep>
   <time name="dav">   21.89   21.90</time>
   <time name="total">   24.70   24.71</time>
   <energy>
    <i name="e_fr_energy">   -621.63995889 </i>
    <i name="e_wo_entrp">   -621.53100439 </i>
    <i name="e_0_energy">   -621.58548164 </i>
   </energy>
  </scstep>
  <scstep>
   <time name="dav">   22.20   22.22</time>
   <time name="total">   25.04   25.05</time>
   <energy>
    <i name="e_fr_energy">   -622.18734958 </i>
    <i name="e_wo_entrp">   -622.08154869 </i>
    <i name="e_0_energy">   -622.13444913 </i>
   </energy>
  </scstep>
  <scstep>
   <time name="dav">   23.23   23.24</time>
   <time name="total">   26.08   26.09</time>
   <energy>
    <i name="e_fr_energy">   -623.00046427 </i>
    <i name="e_wo_entrp">   -622.91699270 </i>
    <i name="e_0_energy">   -622.95872849 </i>
   </energy>
  </scstep>
  <scstep>
   <time name="dav">   21.34   21.36</time>
   <time name="total">   24.17   24.19</time>
   <energy>
    <i name="e_fr_energy">   -623.13143247 </i>
    <i name="e_wo_entrp">   -623.04944495 </i>
    <i name="e_0_energy">   -623.09043871 </i>
   </energy>
  </scstep>
  <scstep>
   <time name="dav">   22.60   22.61</time>
   <time name="total">   25.40   25.42</time>
   <energy>
    <i name="e_fr_energy">   -623.70267466 </i>
    <i name="e_wo_entrp">   -623.62292515 </i>
    <i name="e_0_energy">   -623.66279990 </i>
   </energy>
  </scstep>
  <scstep>
   <time name="dav">   24.46   24.47</time>
   <time name="total">   27.27   27.29</time>
   <energy>
    <i name="e_fr_energy">   -623.22733659 </i>
    <i name="e_wo_entrp">   -623.15287686 </i>
    <i name="e_0_energy">   -623.19010673 </i>
   </energy>
  </scstep>
  <scstep>
   <time name="dav">   23.94   23.96</time>
   <time name="total">   26.77   26.79</time>
   <energy>
    <i name="e_fr_energy">   -623.13338638 </i>
    <i name="e_wo_entrp">   -623.06882464 </i>
    <i name="e_0_energy">   -623.10110551 </i>
   </energy>
  </scstep>
  <scstep>
