unknown system                          
           1
    11.598200    0.000000    0.000000
    -5.799100   10.044336    0.000000
     0.000000    0.000000   21.048200
   Ir   Ce   O 
     6    21    63
Direct configuration=     1
   0.00000000  0.00000000  0.45993000
   0.66667000  0.00000000  0.45993000
   0.00000000  0.33333000  0.45993000
   0.33333000  0.33333000  0.45993000
   0.33333000  0.66667000  0.45993000
   0.66667000  0.66667000  0.45993000
   0.22222000  0.11111000  0.30996000
   0.11111000  0.22222000  0.15999000
   0.33333000  0.00000000  0.45993000
   0.55556000  0.11111000  0.30996000
   0.44444000  0.22222000  0.15999000
   0.88889000  0.11111000  0.30996000
   0.77778000  0.22222000  0.15999000
   0.22222000  0.44444000  0.30996000
   0.11111000  0.55556000  0.15999000
   0.55556000  0.44444000  0.30996000
   0.44444000  0.55556000  0.15999000
   0.66667000  0.33333000  0.45993000
   0.88889000  0.44444000  0.30996000
   0.77778000  0.55556000  0.15999000
   0.00000000  0.66667000  0.45993000
   0.22222000  0.77778000  0.30996000
   0.11111000  0.88889000  0.15999000
   0.55556000  0.77778000  0.30996000
   0.44444000  0.88889000  0.15999000
   0.88889000  0.77778000  0.30996000
   0.77778000  0.88889000  0.15999000
   0.00000000  0.00000000  0.12250000
   0.11111000  0.22222000  0.27247000
   0.22222000  0.11111000  0.42244000
   0.11111000  0.22222000  0.04751000
   0.11111000  0.22222000  0.49742000
   0.00000000  0.00000000  0.34745000
   0.22222000  0.11111000  0.19748000
   0.33333000  0.00000000  0.12250000
   0.44444000  0.22222000  0.27247000
   0.55556000  0.11111000  0.42244000
   0.44444000  0.22222000  0.04751000
   0.44444000  0.22222000  0.49742000
   0.33333000  0.00000000  0.34745000
   0.55556000  0.11111000  0.19748000
   0.66667000  0.00000000  0.12250000
   0.77778000  0.22222000  0.27247000
   0.88889000  0.11111000  0.42244000
   0.77778000  0.22222000  0.04751000
   0.77778000  0.22222000  0.49742000
   0.66667000  0.00000000  0.34745000
   0.88889000  0.11111000  0.19748000
   0.00000000  0.33333000  0.12250000
   0.11111000  0.55556000  0.27247000
   0.22222000  0.44444000  0.42244000
   0.11111000  0.55556000  0.04751000
   0.11111000  0.55556000  0.49742000
   0.00000000  0.33333000  0.34745000
   0.22222000  0.44444000  0.19748000
   0.33333000  0.33333000  0.12250000
   0.44444000  0.55556000  0.27247000
   0.55556000  0.44444000  0.42244000
   0.44444000  0.55556000  0.04751000
   0.44444000  0.55556000  0.49742000
   0.33333000  0.33333000  0.34745000
   0.55556000  0.44444000  0.19748000
   0.66667000  0.33333000  0.12250000
   0.77778000  0.55556000  0.27247000
   0.88889000  0.44444000  0.42244000
   0.77778000  0.55556000  0.04751000
   0.77778000  0.55556000  0.49742000
   0.66667000  0.33333000  0.34745000
   0.88889000  0.44444000  0.19748000
   0.00000000  0.66667000  0.12250000
   0.11111000  0.88889000  0.27247000
   0.22222000  0.77778000  0.42244000
   0.11111000  0.88889000  0.04751000
   0.11111000  0.88889000  0.49742000
   0.00000000  0.66667000  0.34745000
   0.22222000  0.77778000  0.19748000
   0.33333000  0.66667000  0.12250000
   0.44444000  0.88889000  0.27247000
   0.55556000  0.77778000  0.42244000
   0.44444000  0.88889000  0.04751000
   0.44444000  0.88889000  0.49742000
   0.33333000  0.66667000  0.34745000
   0.55556000  0.77778000  0.19748000
   0.66667000  0.66667000  0.12250000
   0.77778000  0.88889000  0.27247000
   0.88889000  0.77778000  0.42244000
   0.77778000  0.88889000  0.04751000
   0.77778000  0.88889000  0.49742000
   0.66667000  0.66667000  0.34745000
   0.88889000  0.77778000  0.19748000
Direct configuration=     2
   0.99976766  0.00023234  0.45755886
   0.66718320  0.99931464  0.45775170
   0.00068536  0.33281680  0.45775170
   0.33320411  0.33377353  0.45757835
   0.33400385  0.66599615  0.45769960
   0.66622647  0.66679589  0.45757835
   0.22166364  0.11160606  0.30918335
   0.11111000  0.22222000  0.15999000
   0.33288732  0.00038029  0.46020443
   0.55595456  0.11054486  0.30925606
   0.44444000  0.22222000  0.15999000
   0.88897969  0.11102031  0.30933426
   0.77778000  0.22222000  0.15999000
   0.22232022  0.44438283  0.30932077
   0.11111000  0.55556000  0.15999000
   0.55495796  0.44504204  0.30920587
   0.44444000  0.55556000  0.15999000
   0.66632722  0.33367278  0.46025790
   0.88945514  0.44404544  0.30925606
   0.77778000  0.55556000  0.15999000
   0.99961971  0.66711268  0.46020443
   0.22267162  0.77732838  0.30912775
   0.11111000  0.88889000  0.15999000
   0.55561717  0.77767978  0.30932077
   0.44444000  0.88889000  0.15999000
   0.88839394  0.77833636  0.30918335
   0.77778000  0.88889000  0.15999000
   0.00000000  0.00000000  0.12250000
   0.11106660  0.22205572  0.27271058
   0.21833723  0.11486649  0.42524972
   0.11111000  0.22222000  0.04751000
   0.11101051  0.22229350  0.49475268
   0.00006617  0.99993383  0.34898704
   0.22222000  0.11111000  0.19748000
   0.33333000  0.00000000  0.12250000
   0.44435000  0.22222663  0.27304690
   0.55864608  0.10803116  0.42411755
   0.44444000  0.22222000  0.04751000
   0.44113324  0.22550218  0.49600547
   0.33301484  0.00042936  0.34882669
   0.55556000  0.11111000  0.19748000
   0.66667000  0.00000000  0.12250000
   0.77778056  0.22221944  0.27282985
   0.88893425  0.11106575  0.42697826
   0.77778000  0.22222000  0.04751000
   0.78200355  0.21799645  0.49568520
   0.66685371  0.99996339  0.34891842
   0.88889000  0.11111000  0.19748000
   0.00000000  0.33333000  0.12250000
   0.11099410  0.55551292  0.27292032
   0.22223228  0.44436469  0.42700682
   0.11111000  0.55556000  0.04751000
   0.11537747  0.55130667  0.49571173
   0.00003661  0.33314629  0.34891842
   0.22222000  0.44444000  0.19748000
   0.33333000  0.33333000  0.12250000
   0.44450995  0.55549005  0.27277505
   0.55170824  0.44829176  0.42527523
   0.44444000  0.55556000  0.04751000
   0.44434009  0.55565991  0.49483774
   0.33339617  0.33317661  0.34901687
   0.55556000  0.44444000  0.19748000
   0.66667000  0.33333000  0.12250000
   0.77777337  0.55565000  0.27304690
   0.89196884  0.44135392  0.42411755
   0.77778000  0.55556000  0.04751000
   0.77449782  0.55886676  0.49600547
   0.66633402  0.33366598  0.34881515
   0.88889000  0.44444000  0.19748000
   0.00000000  0.66667000  0.12250000
   0.11099229  0.88900771  0.27306264
   0.22524987  0.77475013  0.42413299
   0.11111000  0.88889000  0.04751000
   0.10781894  0.89218106  0.49601815
   0.99957064  0.66698516  0.34882669
   0.22222000  0.77778000  0.19748000
   0.33333000  0.66667000  0.12250000
   0.44448708  0.88900590  0.27292032
   0.55563531  0.77776772  0.42700682
   0.44444000  0.88889000  0.04751000
   0.44869333  0.88462253  0.49571173
   0.33344216  0.66655784  0.34903127
   0.55556000  0.77778000  0.19748000
   0.66667000  0.66667000  0.12250000
   0.77794428  0.88893340  0.27271058
   0.88513351  0.78166277  0.42524972
   0.77778000  0.88889000  0.04751000
   0.77770650  0.88898949  0.49475268
   0.66682339  0.66660383  0.34901687
   0.88889000  0.77778000  0.19748000
Direct configuration=     3
   0.99974324  0.00025676  0.45730960
   0.66723716  0.99924260  0.45752270
   0.00075740  0.33276284  0.45752270
   0.33319088  0.33382016  0.45733113
   0.33407469  0.66592531  0.45746513
   0.66617984  0.66680912  0.45733113
   0.22160516  0.11165821  0.30910171
   0.11111000  0.22222000  0.15999000
   0.33284078  0.00042026  0.46023328
   0.55599604  0.11048545  0.30918206
   0.44444000  0.22222000  0.15999000
   0.88898912  0.11101088  0.30926848
   0.77778000  0.22222000  0.15999000
   0.22233075  0.44437682  0.30925358
   0.11111000  0.55556000  0.15999000
   0.55489467  0.44510533  0.30912659
   0.44444000  0.55556000  0.15999000
   0.66629118  0.33370882  0.46029238
   0.88951455  0.44400396  0.30918206
   0.77778000  0.55556000  0.15999000
   0.99957974  0.66715922  0.46023328
   0.22271910  0.77728090  0.30904026
   0.11111000  0.88889000  0.15999000
   0.55562318  0.77766925  0.30925358
   0.44444000  0.88889000  0.15999000
   0.88834179  0.77839484  0.30910171
   0.77778000  0.88889000  0.15999000
   0.00000000  0.00000000  0.12250000
   0.11106204  0.22203845  0.27273588
   0.21792906  0.11526138  0.42554509
   0.11111000  0.22222000  0.04751000
   0.11100005  0.22230122  0.49447227
   0.00007313  0.99992687  0.34914862
   0.22222000  0.11111000  0.19748000
   0.33333000  0.00000000  0.12250000
   0.44434054  0.22222733  0.27310754
   0.55897050  0.10770750  0.42429391
   0.44444000  0.22222000  0.04751000
   0.44078561  0.22584722  0.49585676
   0.33298171  0.00047450  0.34897142
   0.55556000  0.11111000  0.19748000
   0.66667000  0.00000000  0.12250000
   0.77778062  0.22221938  0.27286768
   0.88893890  0.11106110  0.42745534
   0.77778000  0.22222000  0.04751000
   0.78244756  0.21755244  0.49550283
   0.66687302  0.99995954  0.34907279
   0.88889000  0.11111000  0.19748000
   0.00000000  0.33333000  0.12250000
   0.11098191  0.55550797  0.27296766
   0.22223357  0.44435677  0.42748691
   0.11111000  0.55556000  0.04751000
   0.11582609  0.55085954  0.49553215
   0.00004046  0.33312698  0.34907279
   0.22222000  0.44444000  0.19748000
   0.33333000  0.33333000  0.12250000
   0.44451731  0.55548269  0.27280712
   0.55130332  0.44869668  0.42557329
   0.44444000  0.55556000  0.04751000
   0.44432959  0.55567041  0.49456628
   0.33340313  0.33316048  0.34918159
   0.55556000  0.44444000  0.19748000
   0.66667000  0.33333000  0.12250000
   0.77777267  0.55565946  0.27310754
   0.89229250  0.44102950  0.42429391
   0.77778000  0.55556000  0.04751000
   0.77415278  0.55921439  0.49585676
   0.66629870  0.33370130  0.34895866
   0.88889000  0.44444000  0.19748000
   0.00000000  0.66667000  0.12250000
   0.11097992  0.88902008  0.27312494
   0.22556838  0.77443162  0.42431096
   0.11111000  0.88889000  0.04751000
   0.10747297  0.89252703  0.49587078
   0.99952550  0.66701829  0.34897142
   0.22222000  0.77778000  0.19748000
   0.33333000  0.66667000  0.12250000
   0.44449203  0.88901809  0.27296766
   0.55564323  0.77776643  0.42748691
   0.44444000  0.88889000  0.04751000
   0.44914046  0.88417391  0.49553215
   0.33345395  0.66654605  0.34919750
   0.55556000  0.77778000  0.19748000
   0.66667000  0.66667000  0.12250000
   0.77796155  0.88893796  0.27273588
   0.88473862  0.78207094  0.42554509
   0.77778000  0.88889000  0.04751000
   0.77769878  0.88899995  0.49447227
   0.66683952  0.66659687  0.34918159
   0.88889000  0.77778000  0.19748000
Direct configuration=     4
   0.99969439  0.00030561  0.45681107
   0.66734506  0.99909850  0.45706471
   0.00090150  0.33265494  0.45706471
   0.33316441  0.33391341  0.45683670
   0.33421637  0.66578363  0.45699619
   0.66608659  0.66683559  0.45683670
   0.22148818  0.11176250  0.30893842
   0.11111000  0.22222000  0.15999000
   0.33274771  0.00050022  0.46029098
   0.55607899  0.11036663  0.30903405
   0.44444000  0.22222000  0.15999000
   0.88900797  0.11099203  0.30913692
   0.77778000  0.22222000  0.15999000
   0.22235183  0.44436480  0.30911918
   0.11111000  0.55556000  0.15999000
   0.55476810  0.44523190  0.30896804
   0.44444000  0.55556000  0.15999000
   0.66621911  0.33378089  0.46036132
   0.88963337  0.44392101  0.30903405
   0.77778000  0.55556000  0.15999000
   0.99949978  0.66725229  0.46029098
   0.22281405  0.77718595  0.30886528
   0.11111000  0.88889000  0.15999000
   0.55563520  0.77764817  0.30911918
   0.44444000  0.88889000  0.15999000
   0.88823750  0.77851182  0.30893842
   0.77778000  0.88889000  0.15999000
   0.00000000  0.00000000  0.12250000
   0.11105291  0.22200392  0.27278646
   0.21711271  0.11605118  0.42613583
   0.11111000  0.22222000  0.04751000
   0.11097914  0.22231668  0.49391147
   0.00008704  0.99991296  0.34947178
   0.22222000  0.11111000  0.19748000
   0.33333000  0.00000000  0.12250000
   0.44432161  0.22222873  0.27322884
   0.55961935  0.10706017  0.42464661
   0.44444000  0.22222000  0.04751000
   0.44009037  0.22653730  0.49555936
   0.33291545  0.00056477  0.34926087
   0.55556000  0.11111000  0.19748000
   0.66667000  0.00000000  0.12250000
   0.77778074  0.22221926  0.27294333
   0.88894821  0.11105179  0.42840951
   0.77778000  0.22222000  0.04751000
   0.78333556  0.21666444  0.49513809
   0.66691165  0.99995184  0.34938152
   0.88889000  0.11111000  0.19748000
   0.00000000  0.33333000  0.12250000
   0.11095754  0.55549807  0.27306233
   0.22223616  0.44434094  0.42844708
   0.11111000  0.55556000  0.04751000
   0.11672332  0.54996527  0.49517299
   0.00004816  0.33308835  0.34938152
   0.22222000  0.44444000  0.19748000
   0.33333000  0.33333000  0.12250000
   0.44453201  0.55546799  0.27287125
   0.55049349  0.44950651  0.42616939
   0.44444000  0.55556000  0.04751000
   0.44430859  0.55569141  0.49402336
   0.33341704  0.33312823  0.34951102
   0.55556000  0.44444000  0.19748000
   0.66667000  0.33333000  0.12250000
   0.77777127  0.55567839  0.27322884
   0.89293983  0.44038065  0.42464661
   0.77778000  0.55556000  0.04751000
   0.77346270  0.55990963  0.49555936
   0.66622806  0.33377194  0.34924568
   0.88889000  0.44444000  0.19748000
   0.00000000  0.66667000  0.12250000
   0.11095517  0.88904483  0.27324954
   0.22620541  0.77379459  0.42466692
   0.11111000  0.88889000  0.04751000
   0.10678103  0.89321897  0.49557604
   0.99943523  0.66708455  0.34926087
   0.22222000  0.77778000  0.19748000
   0.33333000  0.66667000  0.12250000
   0.44450193  0.88904246  0.27306233
   0.55565906  0.77776384  0.42844708
   0.44444000  0.88889000  0.04751000
   0.45003473  0.88327668  0.49517299
   0.33347753  0.66652247  0.34952996
   0.55556000  0.77778000  0.19748000
   0.66667000  0.66667000  0.12250000
   0.77799608  0.88894709  0.27278646
   0.88394882  0.78288729  0.42613583
   0.77778000  0.88889000  0.04751000
   0.77768332  0.88902086  0.49391147
   0.66687177  0.66658296  0.34951102
   0.88889000  0.77778000  0.19748000
Direct configuration=     5
   0.99959669  0.00040331  0.45581400
   0.66756086  0.99881031  0.45614874
   0.00118969  0.33243914  0.45614874
   0.33311148  0.33409992  0.45584783
   0.33449972  0.66550028  0.45605832
   0.66590008  0.66688852  0.45584783
   0.22125424  0.11197110  0.30861184
   0.11111000  0.22222000  0.15999000
   0.33256156  0.00066013  0.46040638
   0.55624490  0.11012899  0.30873805
   0.44444000  0.22222000  0.15999000
   0.88904569  0.11095431  0.30887380
   0.77778000  0.22222000  0.15999000
   0.22239397  0.44434076  0.30885038
   0.11111000  0.55556000  0.15999000
   0.55451494  0.44548506  0.30865093
   0.44444000  0.55556000  0.15999000
   0.66607497  0.33392503  0.46049920
   0.88987101  0.44375510  0.30873805
   0.77778000  0.55556000  0.15999000
   0.99933987  0.66743844  0.46040638
   0.22300396  0.77699604  0.30851532
   0.11111000  0.88889000  0.15999000
   0.55565924  0.77760603  0.30885038
   0.44444000  0.88889000  0.15999000
   0.88802890  0.77874576  0.30861184
   0.77778000  0.88889000  0.15999000
   0.00000000  0.00000000  0.12250000
   0.11103466  0.22193484  0.27288762
   0.21548001  0.11763078  0.42731731
   0.11111000  0.22222000  0.04751000
   0.11093730  0.22234758  0.49278986
   0.00011487  0.99988513  0.35011810
   0.22222000  0.11111000  0.19748000
   0.33333000  0.00000000  0.12250000
   0.44428377  0.22223152  0.27347142
   0.56091704  0.10576552  0.42535202
   0.44444000  0.22222000  0.04751000
   0.43869988  0.22791745  0.49496455
   0.33278292  0.00074531  0.34983977
   0.55556000  0.11111000  0.19748000
   0.66667000  0.00000000  0.12250000
   0.77778098  0.22221902  0.27309465
   0.88896681  0.11103319  0.43031784
   0.77778000  0.22222000  0.04751000
   0.78511156  0.21488844  0.49440861
   0.66698890  0.99993645  0.34999899
   0.88889000  0.11111000  0.19748000
   0.00000000  0.33333000  0.12250000
   0.11090881  0.55547827  0.27325169
   0.22224132  0.44430927  0.43036742
   0.11111000  0.55556000  0.04751000
   0.11851779  0.54817675  0.49445466
   0.00006355  0.33301110  0.34999899
   0.22222000  0.44444000  0.19748000
   0.33333000  0.33333000  0.12250000
   0.44456143  0.55543857  0.27299953
   0.54887382  0.45112618  0.42736160
   0.44444000  0.55556000  0.04751000
   0.44426657  0.55573343  0.49293753
   0.33344486  0.33306373  0.35016989
   0.55556000  0.44444000  0.19748000
   0.66667000  0.33333000  0.12250000
   0.77776848  0.55571623  0.27347142
   0.89423448  0.43908296  0.42535202
   0.77778000  0.55556000  0.04751000
   0.77208255  0.56130012  0.49496455
   0.66608678  0.33391322  0.34981973
   0.88889000  0.44444000  0.19748000
   0.00000000  0.66667000  0.12250000
   0.11090567  0.88909433  0.27349875
   0.22747946  0.77252054  0.42537882
   0.11111000  0.88889000  0.04751000
   0.10539714  0.89460286  0.49498657
   0.99925469  0.66721708  0.34983977
   0.22222000  0.77778000  0.19748000
   0.33333000  0.66667000  0.12250000
   0.44452173  0.88909119  0.27325169
   0.55569073  0.77775868  0.43036742
   0.44444000  0.88889000  0.04751000
   0.45182325  0.88148221  0.49445466
   0.33352470  0.66647530  0.35019489
   0.55556000  0.77778000  0.19748000
   0.66667000  0.66667000  0.12250000
   0.77806516  0.88896534  0.27288762
   0.88236922  0.78451999  0.42731731
   0.77778000  0.88889000  0.04751000
   0.77765242  0.88906270  0.49278986
   0.66693627  0.66655514  0.35016989
   0.88889000  0.77778000  0.19748000
Direct configuration=     6
   0.99940129  0.00059871  0.45381988
   0.66799246  0.99823393  0.45431679
   0.00176607  0.33200754  0.45431679
   0.33300561  0.33447293  0.45387010
   0.33506643  0.66493357  0.45418256
   0.66552707  0.66699439  0.45387010
   0.22078634  0.11238828  0.30795868
   0.11111000  0.22222000  0.15999000
   0.33218927  0.00097995  0.46063717
   0.55657673  0.10965371  0.30814603
   0.44444000  0.22222000  0.15999000
   0.88912111  0.11087889  0.30834756
   0.77778000  0.22222000  0.15999000
   0.22247825  0.44429268  0.30831280
   0.11111000  0.55556000  0.15999000
   0.55400863  0.44599137  0.30801671
   0.44444000  0.55556000  0.15999000
   0.66578669  0.33421331  0.46077497
   0.89034629  0.44342327  0.30814603
   0.77778000  0.55556000  0.15999000
   0.99902005  0.66781073  0.46063717
   0.22338377  0.77661623  0.30781540
   0.11111000  0.88889000  0.15999000
   0.55570732  0.77752175  0.30831280
   0.44444000  0.88889000  0.15999000
   0.88761172  0.77921366  0.30795868
   0.77778000  0.88889000  0.15999000
   0.00000000  0.00000000  0.12250000
   0.11099816  0.22179668  0.27308995
   0.21221461  0.12078998  0.42968028
   0.11111000  0.22222000  0.04751000
   0.11085364  0.22240939  0.49054665
   0.00017052  0.99982948  0.35141074
   0.22222000  0.11111000  0.19748000
   0.33333000  0.00000000  0.12250000
   0.44420808  0.22223710  0.27395659
   0.56351243  0.10317623  0.42676284
   0.44444000  0.22222000  0.04751000
   0.43591889  0.23067776  0.49377493
   0.33251787  0.00110640  0.35099756
   0.55556000  0.11111000  0.19748000
   0.66667000  0.00000000  0.12250000
   0.77778145  0.22221855  0.27339728
   0.88900403  0.11099597  0.43413451
   0.77778000  0.22222000  0.04751000
   0.78866356  0.21133644  0.49294965
   0.66714339  0.99990566  0.35123393
   0.88889000  0.11111000  0.19748000
   0.00000000  0.33333000  0.12250000
   0.11081133  0.55543867  0.27363041
   0.22225165  0.44424594  0.43420811
   0.11111000  0.55556000  0.04751000
   0.12210672  0.54459971  0.49301801
   0.00009434  0.33285661  0.35123393
   0.22222000  0.44444000  0.19748000
   0.33333000  0.33333000  0.12250000
   0.44462026  0.55537974  0.27325607
   0.54563450  0.45436550  0.42974603
   0.44444000  0.55556000  0.04751000
   0.44418255  0.55581745  0.49076585
   0.33350051  0.33293473  0.35148762
   0.55556000  0.44444000  0.19748000
   0.66667000  0.33333000  0.12250000
   0.77776290  0.55579192  0.27395659
   0.89682377  0.43648757  0.42676284
   0.77778000  0.55556000  0.04751000
   0.76932224  0.56408111  0.49377493
   0.66580422  0.33419578  0.35096781
   0.88889000  0.44444000  0.19748000
   0.00000000  0.66667000  0.12250000
   0.11080668  0.88919332  0.27399716
   0.23002758  0.76997242  0.42680262
   0.11111000  0.88889000  0.04751000
   0.10262937  0.89737063  0.49380761
   0.99889360  0.66748213  0.35099756
   0.22222000  0.77778000  0.19748000
   0.33333000  0.66667000  0.12250000
   0.44456133  0.88918867  0.27363041
   0.55575406  0.77774835  0.43420811
   0.44444000  0.88889000  0.04751000
   0.45540029  0.87789328  0.49301801
   0.33361902  0.66638098  0.35152473
   0.55556000  0.77778000  0.19748000
   0.66667000  0.66667000  0.12250000
   0.77820332  0.88900184  0.27308995
   0.87921002  0.78778539  0.42968028
   0.77778000  0.88889000  0.04751000
   0.77759061  0.88914636  0.49054665
   0.66706527  0.66649949  0.35148762
   0.88889000  0.77778000  0.19748000
Direct configuration=     7
   0.99946708  0.00053292  0.45449127
   0.66784715  0.99842799  0.45493358
   0.00157201  0.33215285  0.45493358
   0.33304125  0.33434734  0.45453597
   0.33487563  0.66512437  0.45481409
   0.66565266  0.66695875  0.45453597
   0.22094387  0.11224782  0.30817859
   0.11111000  0.22222000  0.15999000
   0.33231462  0.00087227  0.46055947
   0.55646501  0.10981373  0.30834535
   0.44444000  0.22222000  0.15999000
   0.88909572  0.11090428  0.30852473
   0.77778000  0.22222000  0.15999000
   0.22244987  0.44430887  0.30849379
   0.11111000  0.55556000  0.15999000
   0.55417910  0.44582090  0.30823024
   0.44444000  0.55556000  0.15999000
   0.66588375  0.33411625  0.46068212
   0.89018627  0.44353499  0.30834535
   0.77778000  0.55556000  0.15999000
   0.99912773  0.66768538  0.46055947
   0.22325590  0.77674410  0.30805105
   0.11111000  0.88889000  0.15999000
   0.55569113  0.77755013  0.30849379
   0.44444000  0.88889000  0.15999000
   0.88775218  0.77905613  0.30817859
   0.77778000  0.88889000  0.15999000
   0.00000000  0.00000000  0.12250000
   0.11101045  0.22184320  0.27302183
   0.21331402  0.11972633  0.42888471
   0.11111000  0.22222000  0.04751000
   0.11088180  0.22238858  0.49130190
   0.00015179  0.99984821  0.35097553
   0.22222000  0.11111000  0.19748000
   0.33333000  0.00000000  0.12250000
   0.44423356  0.22223522  0.27379324
   0.56263861  0.10404800  0.42628784
   0.44444000  0.22222000  0.04751000
   0.43685520  0.22974841  0.49417545
   0.33260711  0.00098483  0.35060775
   0.55556000  0.11111000  0.19748000
   0.66667000  0.00000000  0.12250000
   0.77778129  0.22221871  0.27329539
   0.88899150  0.11100850  0.43284950
   0.77778000  0.22222000  0.04751000
   0.78746766  0.21253234  0.49344086
   0.66709138  0.99991603  0.35081815
   0.88889000  0.11111000  0.19748000
   0.00000000  0.33333000  0.12250000
   0.11084415  0.55545200  0.27350290
   0.22224818  0.44426726  0.43291502
   0.11111000  0.55556000  0.04751000
   0.12089839  0.54580404  0.49350171
   0.00008397  0.33290862  0.35081815
   0.22222000  0.44444000  0.19748000
   0.33333000  0.33333000  0.12250000
   0.44460045  0.55539955  0.27316970
   0.54672512  0.45327488  0.42894323
   0.44444000  0.55556000  0.04751000
   0.44421084  0.55578916  0.49149702
   0.33348178  0.33297816  0.35104396
   0.55556000  0.44444000  0.19748000
   0.66667000  0.33333000  0.12250000
   0.77776478  0.55576644  0.27379324
   0.89595200  0.43736139  0.42628784
   0.77778000  0.55556000  0.04751000
   0.77025159  0.56314480  0.49417545
   0.66589935  0.33410065  0.35058127
   0.88889000  0.44444000  0.19748000
   0.00000000  0.66667000  0.12250000
   0.11084001  0.88915999  0.27382935
   0.22916967  0.77083033  0.42632325
   0.11111000  0.88889000  0.04751000
   0.10356123  0.89643877  0.49420455
   0.99901517  0.66739289  0.35060775
   0.22222000  0.77778000  0.19748000
   0.33333000  0.66667000  0.12250000
   0.44454800  0.88915585  0.27350290
   0.55573274  0.77775182  0.43291502
   0.44444000  0.88889000  0.04751000
   0.45419596  0.87910161  0.49350171
   0.33358727  0.66641273  0.35107700
   0.55556000  0.77778000  0.19748000
   0.66667000  0.66667000  0.12250000
   0.77815680  0.88898955  0.27302183
   0.88027367  0.78668598  0.42888471
   0.77778000  0.88889000  0.04751000
   0.77761142  0.88911820  0.49130190
   0.66702184  0.66651822  0.35104396
   0.88889000  0.77778000  0.19748000
Direct configuration=     8
   0.99735222  0.00264778  0.45531667
   0.67055864  0.99590096  0.45615409
   0.00409904  0.32944136  0.45615409
   0.33090627  0.33624686  0.45560166
   0.33741855  0.66258145  0.45581804
   0.66375314  0.66909373  0.45560166
   0.22144780  0.11193133  0.30950790
   0.11111000  0.22222000  0.15999000
   0.33190719  0.00137279  0.46069680
   0.55600673  0.11094945  0.30957460
   0.44444000  0.22222000  0.15999000
   0.88921981  0.11078019  0.31044408
   0.77778000  0.22222000  0.15999000
   0.22233041  0.44362538  0.31049245
   0.11111000  0.55556000  0.15999000
   0.55483287  0.44516713  0.30962603
   0.44444000  0.55556000  0.15999000
   0.66551004  0.33448996  0.46073074
   0.88905055  0.44399327  0.30957460
   0.77778000  0.55556000  0.15999000
   0.99862721  0.66809281  0.46069680
   0.22234853  0.77765147  0.30937867
   0.11111000  0.88889000  0.15999000
   0.55637462  0.77766959  0.31049245
   0.44444000  0.88889000  0.15999000
   0.88806867  0.77855220  0.30950790
   0.77778000  0.88889000  0.15999000
   0.00000000  0.00000000  0.12250000
   0.11086726  0.22233777  0.27395963
   0.21126882  0.12170762  0.42903701
   0.11111000  0.22222000  0.04751000
   0.10953804  0.22382963  0.48726674
   0.99955619  0.00044381  0.35178941
   0.22222000  0.11111000  0.19748000
   0.33333000  0.00000000  0.12250000
   0.44421747  0.22236683  0.27457144
   0.56469119  0.10189099  0.42806594
   0.44444000  0.22222000  0.04751000
   0.43437941  0.23235768  0.49091935
   0.33188492  0.00149437  0.35253737
   0.55556000  0.11111000  0.19748000
   0.66667000  0.00000000  0.12250000
   0.77803415  0.22196585  0.27432657
   0.89024507  0.10975493  0.43249076
   0.77778000  0.22222000  0.04751000
   0.79027516  0.20972484  0.49058392
   0.66804307  0.99872627  0.35193062
   0.88889000  0.11111000  0.19748000
   0.00000000  0.33333000  0.12250000
   0.11140035  0.55532754  0.27450221
   0.22359027  0.44312930  0.43249931
   0.11111000  0.55556000  0.04751000
   0.12381582  0.54294806  0.49061810
   0.00127373  0.33195693  0.35193062
   0.22222000  0.44444000  0.19748000
   0.33333000  0.33333000  0.12250000
   0.44420588  0.55579412  0.27406525
   0.54467969  0.45532031  0.42909353
   0.44444000  0.55556000  0.04751000
   0.44277175  0.55722825  0.48743120
   0.33285517  0.33368049  0.35165146
   0.55556000  0.44444000  0.19748000
   0.66667000  0.33333000  0.12250000
   0.77763317  0.55578253  0.27457144
   0.89810901  0.43530881  0.42806594
   0.77778000  0.55556000  0.04751000
   0.76764232  0.56562059  0.49091935
   0.66521870  0.33478130  0.35258835
   0.88889000  0.44444000  0.19748000
   0.00000000  0.66667000  0.12250000
   0.11088589  0.88911411  0.27463220
   0.23132209  0.76867791  0.42804758
   0.11111000  0.88889000  0.04751000
   0.10100905  0.89899095  0.49098132
   0.99850563  0.66811508  0.35253737
   0.22222000  0.77778000  0.19748000
   0.33333000  0.66667000  0.12250000
   0.44467246  0.88859965  0.27450221
   0.55687070  0.77640973  0.43249931
   0.44444000  0.88889000  0.04751000
   0.45705194  0.87618418  0.49061810
   0.33462800  0.66537200  0.35246719
   0.55556000  0.77778000  0.19748000
   0.66667000  0.66667000  0.12250000
   0.77766223  0.88913274  0.27395963
   0.87829238  0.78873118  0.42903701
   0.77778000  0.88889000  0.04751000
   0.77617037  0.89046196  0.48726674
   0.66631951  0.66714483  0.35165146
   0.88889000  0.77778000  0.19748000
Direct configuration=     9
   0.99584923  0.00415077  0.45590327
   0.67248563  0.99410506  0.45702148
   0.00589494  0.32751437  0.45702148
   0.32938899  0.33759680  0.45635903
   0.33922575  0.66077425  0.45653152
   0.66240320  0.67061101  0.45635903
   0.22180592  0.11170641  0.31045262
   0.11111000  0.22222000  0.15999000
   0.33161764  0.00172850  0.46079440
   0.55568105  0.11175658  0.31044820
   0.44444000  0.22222000  0.15999000
   0.88930801  0.11069199  0.31180811
   0.77778000  0.22222000  0.15999000
   0.22224550  0.44313963  0.31191286
   0.11111000  0.55556000  0.15999000
   0.55529748  0.44470252  0.31061798
   0.44444000  0.55556000  0.15999000
   0.66524445  0.33475555  0.46076530
   0.88824342  0.44431895  0.31044820
   0.77778000  0.55556000  0.15999000
   0.99827150  0.66838236  0.46079440
   0.22170368  0.77829632  0.31032219
   0.11111000  0.88889000  0.15999000
   0.55686037  0.77775450  0.31191286
   0.44444000  0.88889000  0.15999000
   0.88829359  0.77819408  0.31045262
   0.77778000  0.88889000  0.15999000
   0.00000000  0.00000000  0.12250000
   0.11076549  0.22268925  0.27462611
   0.20981535  0.12311567  0.42914525
   0.11111000  0.22222000  0.04751000
   0.10858306  0.22485375  0.48439904
   0.99913292  0.00086708  0.35236782
   0.22222000  0.11111000  0.19748000
   0.33333000  0.00000000  0.12250000
   0.44420603  0.22246037  0.27512449
   0.56614992  0.10035804  0.42932960
   0.44444000  0.22222000  0.04751000
   0.43261992  0.23421203  0.48860532
   0.33137167  0.00185648  0.35390870
   0.55556000  0.11111000  0.19748000
   0.66667000  0.00000000  0.12250000
   0.77821385  0.22178615  0.27505941
   0.89113596  0.10886404  0.43223582
   0.77778000  0.22222000  0.04751000
   0.79227039  0.20772961  0.48855356
   0.66871942  0.99788074  0.35272124
   0.88889000  0.11111000  0.19748000
   0.00000000  0.33333000  0.12250000
   0.11179563  0.55523908  0.27521241
   0.22454406  0.44232058  0.43220388
   0.11111000  0.55556000  0.04751000
   0.12588918  0.54091837  0.48856879
   0.00211926  0.33128058  0.35272124
   0.22222000  0.44444000  0.19748000
   0.33333000  0.33333000  0.12250000
   0.44392546  0.55607454  0.27470169