unknown system                          
           1
    11.598200    0.000000    0.000000
    -5.799100   10.044336    0.000000
     0.000000    0.000000   21.048200
   Ir   Ce   O 
     6    21    63
Direct configuration=     1
   0.01288581  0.98711419  0.47544940
   0.74885073  0.97876428  0.44815154
   0.02123572  0.25114927  0.44815154
   0.34511232  0.30755772  0.44389590
   0.31696110  0.68303890  0.47077537
   0.69244228  0.65488768  0.44389590
   0.21741786  0.10711109  0.30665307
   0.11111000  0.22222000  0.15999000
   0.32803094  0.01091681  0.46143500
   0.55350581  0.11328923  0.31742103
   0.44444000  0.22222000  0.15999000
   0.88820501  0.11179499  0.30514433
   0.77778000  0.22222000  0.15999000
   0.21862411  0.44020651  0.31427904
   0.11111000  0.55556000  0.15999000
   0.55644761  0.44355239  0.30670625
   0.44444000  0.55556000  0.15999000
   0.65690219  0.34309781  0.46304362
   0.88671077  0.44649419  0.31742103
   0.77778000  0.55556000  0.15999000
   0.98908319  0.67196906  0.46143500
   0.21943359  0.78056641  0.31252358
   0.11111000  0.88889000  0.15999000
   0.55979349  0.78137589  0.31427904
   0.44444000  0.88889000  0.15999000
   0.89288891  0.78258214  0.30665307
   0.77778000  0.88889000  0.15999000
   0.00000000  0.00000000  0.12250000
   0.11856339  0.23684609  0.27603617
   0.19719036  0.10449913  0.42901202
   0.11111000  0.22222000  0.04751000
   0.07023891  0.16637800  0.51358775
   0.00173791  0.99826209  0.31900965
   0.22222000  0.11111000  0.19748000
   0.33333000  0.00000000  0.12250000
   0.44450080  0.21999495  0.27412739
   0.53337423  0.11496237  0.42913599
   0.44444000  0.22222000  0.04751000
   0.41954731  0.23452008  0.49658177
   0.32653200  0.00430078  0.35299411
   0.55556000  0.11111000  0.19748000
   0.66667000  0.00000000  0.12250000
   0.77359705  0.22640295  0.27862218
   0.93256697  0.06743303  0.41462531
   0.77778000  0.22222000  0.04751000
   0.83120994  0.16879006  0.47055048
   0.67569827  0.00348814  0.35984982
   0.88889000  0.11111000  0.19748000
   0.00000000  0.33333000  0.12250000
   0.11800478  0.55842051  0.28402406
   0.20611368  0.36892922  0.43277807
   0.11111000  0.55556000  0.04751000
   0.16013815  0.57868113  0.50840418
   0.99651186  0.32430173  0.35984982
   0.22222000  0.44444000  0.19748000
   0.33333000  0.33333000  0.12250000
   0.43947828  0.56052172  0.28067215
   0.53503662  0.46496338  0.43060084
   0.44444000  0.55556000  0.04751000
   0.40395872  0.59604128  0.48736535
   0.33906216  0.32876524  0.35229585
   0.55556000  0.44444000  0.19748000
   0.66667000  0.33333000  0.12250000
   0.78000505  0.55549920  0.27412739
   0.88503763  0.46662577  0.42913599
   0.77778000  0.55556000  0.04751000
   0.76547992  0.58045269  0.49658177
   0.65784121  0.34215879  0.35082631
   0.88889000  0.44444000  0.19748000
   0.00000000  0.66667000  0.12250000
   0.11799829  0.88200171  0.27323662
   0.21850749  0.78149251  0.42969420
   0.11111000  0.88889000  0.04751000
   0.10544868  0.89455132  0.50897799
   0.99569922  0.67346800  0.35299411
   0.22222000  0.77778000  0.19748000
   0.33333000  0.66667000  0.12250000
   0.44157949  0.88199522  0.28402406
   0.63107078  0.79388632  0.43277807
   0.44444000  0.88889000  0.04751000
   0.42131887  0.83986185  0.50840418
   0.34007149  0.65992851  0.38209866
   0.55556000  0.77778000  0.19748000
   0.66667000  0.66667000  0.12250000
   0.76315391  0.88143661  0.27603617
   0.89550087  0.80280964  0.42901202
   0.77778000  0.88889000  0.04751000
   0.83362200  0.92976109  0.51358775
   0.67123476  0.66093784  0.35229585
   0.88889000  0.77778000  0.19748000
Direct configuration=     2
   0.01399600  0.98600400  0.47326633
   0.74503200  0.97602914  0.44767865
   0.02397086  0.25496800  0.44767865
   0.34242790  0.30645826  0.44238477
   0.31601757  0.68398243  0.47034189
   0.69354174  0.65757210  0.44238477
   0.21738037  0.10691473  0.30601886
   0.11111000  0.22222000  0.15999000
   0.32721012  0.00486640  0.46134263
   0.55585587  0.11460854  0.31768171
   0.44444000  0.22222000  0.15999000
   0.88723605  0.11276395  0.30521399
   0.77778000  0.22222000  0.15999000
   0.21690130  0.43897257  0.31369819
   0.11111000  0.55556000  0.15999000
   0.55675540  0.44324460  0.30689385
   0.44444000  0.55556000  0.15999000
   0.65691901  0.34308099  0.46014577
   0.88539146  0.44414413  0.31768171
   0.77778000  0.55556000  0.15999000
   0.99513360  0.67278988  0.46134263
   0.22012031  0.77987969  0.31330139
   0.11111000  0.88889000  0.15999000
   0.56102743  0.78309870  0.31369819
   0.44444000  0.88889000  0.15999000
   0.89308527  0.78261963  0.30601886
   0.77778000  0.88889000  0.15999000
   0.00000000  0.00000000  0.12250000
   0.12254522  0.23912716  0.27552862
   0.19534634  0.10626017  0.42897697
   0.11111000  0.22222000  0.04751000
   0.06956119  0.16686397  0.51316477
   0.00401181  0.99598819  0.31978869
   0.22222000  0.11111000  0.19748000
   0.33333000  0.00000000  0.12250000
   0.44346699  0.22098421  0.27396212
   0.53929558  0.11953901  0.42981190
   0.44444000  0.22222000  0.04751000
   0.42013926  0.23881603  0.49776995
   0.32447574  0.00296228  0.35179874
   0.55556000  0.11111000  0.19748000
   0.66667000  0.00000000  0.12250000
   0.77244250  0.22755750  0.27870714
   0.93294791  0.06705209  0.41697877
   0.77778000  0.22222000  0.04751000
   0.83107353  0.16892647  0.47028731
   0.67323585  0.00068140  0.36218585
   0.88889000  0.11111000  0.19748000
   0.00000000  0.33333000  0.12250000
   0.11916564  0.55820395  0.28396436
   0.20712368  0.36651156  0.43324951
   0.11111000  0.55556000  0.04751000
   0.16299270  0.58010284  0.50729962
   0.99931860  0.32676415  0.36218585
   0.22222000  0.44444000  0.19748000
   0.33333000  0.33333000  0.12250000
   0.43958483  0.56041517  0.28061939
   0.53485260  0.46514740  0.43165781
   0.44444000  0.55556000  0.04751000
   0.40300095  0.59699905  0.48861767
   0.33880200  0.32844631  0.35213568
   0.55556000  0.44444000  0.19748000
   0.66667000  0.33333000  0.12250000
   0.77901579  0.55653301  0.27396212
   0.88046099  0.46070442  0.42981190
   0.77778000  0.55556000  0.04751000
   0.76118397  0.57986074  0.49776995
   0.65808755  0.34191245  0.35267833
   0.88889000  0.44444000  0.19748000
   0.00000000  0.66667000  0.12250000
   0.11750464  0.88249536  0.27256676
   0.21974573  0.78025427  0.42922345
   0.11111000  0.88889000  0.04751000
   0.10302848  0.89697152  0.51003358
   0.99703772  0.67552426  0.35179874
   0.22222000  0.77778000  0.19748000
   0.33333000  0.66667000  0.12250000
   0.44179605  0.88083436  0.28396436
   0.63348844  0.79287632  0.43324951
   0.44444000  0.88889000  0.04751000
   0.41989716  0.83700730  0.50729962
   0.33912884  0.66087116  0.38196180
   0.55556000  0.77778000  0.19748000
   0.66667000  0.66667000  0.12250000
   0.76087284  0.87745478  0.27552862
   0.89373983  0.80465366  0.42897697
   0.77778000  0.88889000  0.04751000
   0.83313603  0.93043881  0.51316477
   0.67155369  0.66119800  0.35213568
   0.88889000  0.77778000  0.19748000
Direct configuration=     3
   0.01399265  0.98600735  0.47327292
   0.74504353  0.97603740  0.44768008
   0.02396260  0.25495647  0.44768008
   0.34243600  0.30646158  0.44238933
   0.31602041  0.68397959  0.47034320
   0.69353842  0.65756400  0.44238933
   0.21738048  0.10691532  0.30602078
   0.11111000  0.22222000  0.15999000
   0.32721260  0.00488466  0.46134290
   0.55584878  0.11460456  0.31768093
   0.44444000  0.22222000  0.15999000
   0.88723897  0.11276103  0.30521378
   0.77778000  0.22222000  0.15999000
   0.21690650  0.43897629  0.31369994
   0.11111000  0.55556000  0.15999000
   0.55675447  0.44324553  0.30689328
   0.44444000  0.55556000  0.15999000
   0.65691896  0.34308104  0.46015451
   0.88539544  0.44415122  0.31768093
   0.77778000  0.55556000  0.15999000
   0.99511534  0.67278740  0.46134290
   0.22011824  0.77988176  0.31329904
   0.11111000  0.88889000  0.15999000
   0.56102371  0.78309350  0.31369994
   0.44444000  0.88889000  0.15999000
   0.89308468  0.78261952  0.30602078
   0.77778000  0.88889000  0.15999000
   0.00000000  0.00000000  0.12250000
   0.12253320  0.23912027  0.27553015
   0.19535191  0.10625485  0.42897707
   0.11111000  0.22222000  0.04751000
   0.06956323  0.16686250  0.51316604
   0.00400495  0.99599505  0.31978634
   0.22222000  0.11111000  0.19748000
   0.33333000  0.00000000  0.12250000
   0.44347011  0.22098122  0.27396262
   0.53927771  0.11952520  0.42980986
   0.44444000  0.22222000  0.04751000
   0.42013747  0.23880306  0.49776637
   0.32448194  0.00296632  0.35180235
   0.55556000  0.11111000  0.19748000
   0.66667000  0.00000000  0.12250000
   0.77244599  0.22755401  0.27870688
   0.93294676  0.06705324  0.41697167
   0.77778000  0.22222000  0.04751000
   0.83107394  0.16892606  0.47028810
   0.67324328  0.00068987  0.36217880
   0.88889000  0.11111000  0.19748000
   0.00000000  0.33333000  0.12250000
   0.11916214  0.55820461  0.28396454
   0.20712063  0.36651885  0.43324808
   0.11111000  0.55556000  0.04751000
   0.16298409  0.58009855  0.50730296
   0.99931013  0.32675672  0.36217880
   0.22222000  0.44444000  0.19748000
   0.33333000  0.33333000  0.12250000
   0.43958451  0.56041549  0.28061955
   0.53485315  0.46514685  0.43165462
   0.44444000  0.55556000  0.04751000
   0.40300384  0.59699616  0.48861389
   0.33880279  0.32844728  0.35213616
   0.55556000  0.44444000  0.19748000
   0.66667000  0.33333000  0.12250000
   0.77901878  0.55652989  0.27396262
   0.88047480  0.46072229  0.42980986
   0.77778000  0.55556000  0.04751000
   0.76119694  0.57986253  0.49776637
   0.65808681  0.34191319  0.35267274
   0.88889000  0.44444000  0.19748000
   0.00000000  0.66667000  0.12250000
   0.11750613  0.88249387  0.27256878
   0.21974199  0.78025801  0.42922487
   0.11111000  0.88889000  0.04751000
   0.10303579  0.89696421  0.51003039
   0.99703368  0.67551806  0.35180235
   0.22222000  0.77778000  0.19748000
   0.33333000  0.66667000  0.12250000
   0.44179539  0.88083786  0.28396454
   0.63348115  0.79287937  0.43324808
   0.44444000  0.88889000  0.04751000
   0.41990145  0.83701591  0.50730296
   0.33913169  0.66086831  0.38196221
   0.55556000  0.77778000  0.19748000
   0.66667000  0.66667000  0.12250000
   0.76087973  0.87746680  0.27553015
   0.89374515  0.80464809  0.42897707
   0.77778000  0.88889000  0.04751000
   0.83313750  0.93043677  0.51316604
   0.67155272  0.66119721  0.35213616
   0.88889000  0.77778000  0.19748000
Direct configuration=     4
   0.01377323  0.98622677  0.47370439
   0.74579827  0.97657797  0.44777354
   0.02342203  0.25420173  0.44777354
   0.34296656  0.30667888  0.44268800
   0.31620690  0.68379310  0.47042887
   0.69332112  0.65703344  0.44268800
   0.21738789  0.10695413  0.30614612
   0.11111000  0.22222000  0.15999000
   0.32737483  0.00608047  0.46136116
   0.55538431  0.11434381  0.31762940
   0.44444000  0.22222000  0.15999000
   0.88743048  0.11256952  0.30520001
   0.77778000  0.22222000  0.15999000
   0.21724700  0.43922017  0.31381474
   0.11111000  0.55556000  0.15999000
   0.55669364  0.44330636  0.30685620
   0.44444000  0.55556000  0.15999000
   0.65691563  0.34308437  0.46072725
   0.88565619  0.44461569  0.31762940
   0.77778000  0.55556000  0.15999000
   0.99391953  0.67262517  0.46136116
   0.21998251  0.78001749  0.31314532
   0.11111000  0.88889000  0.15999000
   0.56077983  0.78275300  0.31381474
   0.44444000  0.88889000  0.15999000
   0.89304587  0.78261211  0.30614612
   0.77778000  0.88889000  0.15999000
   0.00000000  0.00000000  0.12250000
   0.12174623  0.23866944  0.27563046
   0.19571636  0.10590680  0.42898400
   0.11111000  0.22222000  0.04751000
   0.06969718  0.16676645  0.51324964
   0.00355553  0.99644447  0.31963237
   0.22222000  0.11111000  0.19748000
   0.33333000  0.00000000  0.12250000
   0.44367443  0.22078571  0.27399528
   0.53810740  0.11862066  0.42967627
   0.44444000  0.22222000  0.04751000
   0.42002048  0.23795400  0.49753153
   0.32488835  0.00323086  0.35203860
   0.55556000  0.11111000  0.19748000
   0.66667000  0.00000000  0.12250000
   0.77267418  0.22732582  0.27869009
   0.93287147  0.06712853  0.41650653
   0.77778000  0.22222000  0.04751000
   0.83110090  0.16889910  0.47034012
   0.67372996  0.00124460  0.36171710
   0.88889000  0.11111000  0.19748000
   0.00000000  0.33333000  0.12250000
   0.11893270  0.55824741  0.28397634
   0.20692102  0.36699668  0.43315491
   0.11111000  0.55556000  0.04751000
   0.16241991  0.57981756  0.50752126
   0.99875540  0.32627004  0.36171710
   0.22222000  0.44444000  0.19748000
   0.33333000  0.33333000  0.12250000
   0.43956345  0.56043655  0.28062998
   0.53488952  0.46511048  0.43144572
   0.44444000  0.55556000  0.04751000
   0.40319314  0.59680686  0.48836638
   0.33885421  0.32851031  0.35216782
   0.55556000  0.44444000  0.19748000
   0.66667000  0.33333000  0.12250000
   0.77921429  0.55632557  0.27399528
   0.88137934  0.46189260  0.42967627
   0.77778000  0.55556000  0.04751000
   0.76204600  0.57997952  0.49753153
   0.65803812  0.34196188  0.35230670
   0.88889000  0.44444000  0.19748000
   0.00000000  0.66667000  0.12250000
   0.11760370  0.88239630  0.27270117
   0.21949726  0.78050274  0.42931791
   0.11111000  0.88889000  0.04751000
   0.10351412  0.89648588  0.50982176
   0.99676914  0.67511165  0.35203860
   0.22222000  0.77778000  0.19748000
   0.33333000  0.66667000  0.12250000
   0.44175259  0.88106730  0.28397634
   0.63300332  0.79307898  0.43315491
   0.44444000  0.88889000  0.04751000
   0.42018244  0.83758009  0.50752126
   0.33931799  0.66068201  0.38198926
   0.55556000  0.77778000  0.19748000
   0.66667000  0.66667000  0.12250000
   0.76133056  0.87825377  0.27563046
   0.89409320  0.80428364  0.42898400
   0.77778000  0.88889000  0.04751000
   0.83323355  0.93030282  0.51324964
   0.67148969  0.66114579  0.35216782
   0.88889000  0.77778000  0.19748000
Direct configuration=     5
   0.01478609  0.98521391  0.47410099
   0.74627731  0.97781621  0.44838311
   0.02218379  0.25372269  0.44838311
   0.34270031  0.30540623  0.44326029
   0.31686152  0.68313848  0.46822883
   0.69459377  0.65729969  0.44326029
   0.21779793  0.10656618  0.30598674
   0.11111000  0.22222000  0.15999000
   0.32725502  0.00225527  0.46211735
   0.55556874  0.11413652  0.31818420
   0.44444000  0.22222000  0.15999000
   0.88730855  0.11269145  0.30572143
   0.77778000  0.22222000  0.15999000
   0.21715649  0.43922901  0.31375163
   0.11111000  0.55556000  0.15999000
   0.55631498  0.44368502  0.30690370
   0.44444000  0.55556000  0.15999000
   0.65741398  0.34258602  0.45975115
   0.88586348  0.44443126  0.31818420
   0.77778000  0.55556000  0.15999000
   0.99774473  0.67274498  0.46211735
   0.22022491  0.77977509  0.31391665
   0.11111000  0.88889000  0.15999000
   0.56077099  0.78284351  0.31375163
   0.44444000  0.88889000  0.15999000
   0.89343382  0.78220207  0.30598674
   0.77778000  0.88889000  0.15999000
   0.00000000  0.00000000  0.12250000
   0.12369265  0.23959199  0.27511225
   0.19435984  0.10697901  0.42839411
   0.11111000  0.22222000  0.04751000
   0.06910188  0.16652881  0.51276041
   0.00452686  0.99547314  0.32036703
   0.22222000  0.11111000  0.19748000
   0.33333000  0.00000000  0.12250000
   0.44372317  0.22168418  0.27406771
   0.54311094  0.12245270  0.42940527
   0.44444000  0.22222000  0.04751000
   0.41973580  0.24098782  0.49828207
   0.32400383  0.00213248  0.35086213
   0.55556000  0.11111000  0.19748000
   0.66667000  0.00000000  0.12250000
   0.77189325  0.22810675  0.27892590
   0.93236665  0.06763335  0.41771556
   0.77778000  0.22222000  0.04751000
   0.83103784  0.16896216  0.46984502
   0.67112604  0.99932894  0.36282098
   0.88889000  0.11111000  0.19748000
   0.00000000  0.33333000  0.12250000
   0.11911600  0.55760522  0.28386902
   0.20892099  0.36619336  0.43277839
   0.11111000  0.55556000  0.04751000
   0.16120509  0.57941350  0.50736898
   0.00067106  0.32887396  0.36282098
   0.22222000  0.44444000  0.19748000
   0.33333000  0.33333000  0.12250000
   0.43969232  0.56030768  0.28059328
   0.53464296  0.46535704  0.43182303
   0.44444000  0.55556000  0.04751000
   0.40259404  0.59740596  0.48967869
   0.33810513  0.32864978  0.35093860
   0.55556000  0.44444000  0.19748000
   0.66667000  0.33333000  0.12250000
   0.77831582  0.55627683  0.27406771
   0.87754730  0.45688906  0.42940527
   0.77778000  0.55556000  0.04751000
   0.75901218  0.58026420  0.49828207
   0.65869316  0.34130684  0.35315940
   0.88889000  0.44444000  0.19748000
   0.00000000  0.66667000  0.12250000
   0.11750236  0.88249764  0.27211377
   0.22023627  0.77976373  0.42872960
   0.11111000  0.88889000  0.04751000
   0.10066010  0.89933990  0.51031259
   0.99786752  0.67599617  0.35086213
   0.22222000  0.77778000  0.19748000
   0.33333000  0.66667000  0.12250000
   0.44239478  0.88088400  0.28386902
   0.63380664  0.79107901  0.43277839
   0.44444000  0.88889000  0.04751000
   0.42058650  0.83879491  0.50736898
   0.33859234  0.66140766  0.38135342
   0.55556000  0.77778000  0.19748000
   0.66667000  0.66667000  0.12250000
   0.76040801  0.87630735  0.27511225
   0.89302099  0.80564016  0.42839411
   0.77778000  0.88889000  0.04751000
   0.83347119  0.93089812  0.51276041
   0.67135022  0.66189487  0.35093860
   0.88889000  0.77778000  0.19748000
Direct configuration=     6
   0.01485321  0.98514679  0.47412727
   0.74630906  0.97789827  0.44842350
   0.02210173  0.25369094  0.44842350
   0.34268266  0.30532189  0.44329822
   0.31690490  0.68309510  0.46808303
   0.69467811  0.65731734  0.44329822
   0.21782511  0.10654047  0.30597618
   0.11111000  0.22222000  0.15999000
   0.32724708  0.00200177  0.46216747
   0.55558096  0.11412278  0.31822096
   0.44444000  0.22222000  0.15999000
   0.88730047  0.11269953  0.30575598
   0.77778000  0.22222000  0.15999000
   0.21715049  0.43922960  0.31374745
   0.11111000  0.55556000  0.15999000
   0.55628988  0.44371012  0.30690685
   0.44444000  0.55556000  0.15999000
   0.65744700  0.34255300  0.45968646
   0.88587722  0.44441904  0.31822096
   0.77778000  0.55556000  0.15999000
   0.99799823  0.67275292  0.46216747
   0.22024098  0.77975902  0.31396776
   0.11111000  0.88889000  0.15999000
   0.56077040  0.78284951  0.31374745
   0.44444000  0.88889000  0.15999000
   0.89345953  0.78217489  0.30597618
   0.77778000  0.88889000  0.15999000
   0.00000000  0.00000000  0.12250000
   0.12382164  0.23965313  0.27507791
   0.19426994  0.10705007  0.42835502
   0.11111000  0.22222000  0.04751000
   0.06906243  0.16651306  0.51272799
   0.00459123  0.99540877  0.32041572
   0.22222000  0.11111000  0.19748000
   0.33333000  0.00000000  0.12250000
   0.44372640  0.22174373  0.27407251
   0.54344252  0.12270665  0.42938731
   0.44444000  0.22222000  0.04751000
   0.41971693  0.24118888  0.49833181
   0.32394522  0.00205968  0.35078417
   0.55556000  0.11111000  0.19748000
   0.66667000  0.00000000  0.12250000
   0.77184150  0.22815850  0.27894153
   0.93233320  0.06766680  0.41779568
   0.77778000  0.22222000  0.04751000
   0.83103366  0.16896634  0.46981221
   0.67095348  0.99920199  0.36289414
   0.88889000  0.11111000  0.19748000
   0.00000000  0.33333000  0.12250000
   0.11912815  0.55756266  0.28386190
   0.20905353  0.36614012  0.43275344
   0.11111000  0.55556000  0.04751000
   0.16112459  0.57938673  0.50735889
   0.00079801  0.32904652  0.36289414
   0.22222000  0.44444000  0.19748000
   0.33333000  0.33333000  0.12250000
   0.43970086  0.56029914  0.28059085
   0.53462662  0.46537338  0.43184804
   0.44444000  0.55556000  0.04751000
   0.40255434  0.59744566  0.48976566
   0.33805548  0.32865902  0.35085714
   0.55556000  0.44444000  0.19748000
   0.66667000  0.33333000  0.12250000
   0.77825627  0.55627360  0.27407251
   0.87729335  0.45655748  0.42938731
   0.77778000  0.55556000  0.04751000
   0.75881112  0.58028307  0.49833181
   0.65873657  0.34126343  0.35321591
   0.88889000  0.44444000  0.19748000
   0.00000000  0.66667000  0.12250000
   0.11749564  0.88250436  0.27207484
   0.22028525  0.77971475  0.42869061
   0.11111000  0.88889000  0.04751000
   0.10047096  0.89952904  0.51034512
   0.99794032  0.67605478  0.35078417
   0.22222000  0.77778000  0.19748000
   0.33333000  0.66667000  0.12250000
   0.44243734  0.88087185  0.28386190
   0.63385988  0.79094647  0.43275344
   0.44444000  0.88889000  0.04751000
   0.42061327  0.83887541  0.50735889
   0.33854425  0.66145575  0.38131128
   0.55556000  0.77778000  0.19748000
   0.66667000  0.66667000  0.12250000
   0.76034687  0.87617836  0.27507791
   0.89294993  0.80573006  0.42835502
   0.77778000  0.88889000  0.04751000
   0.83348694  0.93093757  0.51272799
   0.67134098  0.66194452  0.35085714
   0.88889000  0.77778000  0.19748000
Direct configuration=     7
   0.01342432  0.98657568  0.47506517
   0.74736501  0.97884862  0.44891951
   0.02115138  0.25263499  0.44891951
   0.34396326  0.30556813  0.44351481
   0.31690542  0.68309458  0.46833730
   0.69443187  0.65603674  0.44351481
   0.21818425  0.10654401  0.30615957
   0.11111000  0.22222000  0.15999000
   0.32884891  0.00282829  0.46269421
   0.55467108  0.11351550  0.31862442
   0.44444000  0.22222000  0.15999000
   0.88781868  0.11218132  0.30628779
   0.77778000  0.22222000  0.15999000
   0.21807476  0.43936848  0.31395814
   0.11111000  0.55556000  0.15999000
   0.55578678  0.44421322  0.30702296
   0.44444000  0.55556000  0.15999000
   0.65776239  0.34223761  0.46065971
   0.88648450  0.44532892  0.31862442
   0.77778000  0.55556000  0.15999000
   0.99717171  0.67115109  0.46269421
   0.21991550  0.78008450  0.31371988
   0.11111000  0.88889000  0.15999000
   0.56063152  0.78192524  0.31395814
   0.44444000  0.88889000  0.15999000
   0.89345599  0.78181575  0.30615957
   0.77778000  0.88889000  0.15999000
   0.00000000  0.00000000  0.12250000
   0.12333668  0.23915901  0.27480920
   0.19414475  0.10667879  0.42791530
   0.11111000  0.22222000  0.04751000
   0.06909238  0.16587075  0.51278083
   0.00422848  0.99577152  0.32085464
   0.22222000  0.11111000  0.19748000
   0.33333000  0.00000000  0.12250000
   0.44454853  0.22205240  0.27419242
   0.54415037  0.12324771  0.42881501
   0.44444000  0.22222000  0.04751000
   0.41915257  0.24097527  0.49883474
   0.32450874  0.00154738  0.35069845
   0.55556000  0.11111000  0.19748000
   0.66667000  0.00000000  0.12250000
   0.77169146  0.22830854  0.27914213
   0.93203320  0.06796680  0.41742120
   0.77778000  0.22222000  0.04751000
   0.83065366  0.16934634  0.46971148
   0.66961111  0.99870978  0.36282754
   0.88889000  0.11111000  0.19748000
   0.00000000  0.33333000  0.12250000
   0.11871940  0.55721886  0.28378706
   0.20913000  0.36608128  0.43228911
   0.11111000  0.55556000  0.04751000
   0.16054522  0.57967483  0.50704826
   0.00129022  0.33038889  0.36282754
   0.22222000  0.44444000  0.19748000
   0.33333000  0.33333000  0.12250000
   0.43969245  0.56030755  0.28052992
   0.53440877  0.46559123  0.43155533
   0.44444000  0.55556000  0.04751000
   0.40271173  0.59728827  0.49043251
   0.33757175  0.32881312  0.35042838
   0.55556000  0.44444000  0.19748000
   0.66667000  0.33333000  0.12250000
   0.77794760  0.55545147  0.27419242
   0.87675229  0.45584963  0.42881501
   0.77778000  0.55556000  0.04751000
   0.75902473  0.58084743  0.49883474
   0.65900898  0.34099102  0.35257475
   0.88889000  0.44444000  0.19748000
   0.00000000  0.66667000  0.12250000
   0.11786036  0.88213964  0.27179642
   0.22026714  0.77973286  0.42830466
   0.11111000  0.88889000  0.04751000
   0.10009929  0.89990071  0.51089923
   0.99845262  0.67549126  0.35069845
   0.22222000  0.77778000  0.19748000
   0.33333000  0.66667000  0.12250000
   0.44278114  0.88128060  0.28378706
   0.63391872  0.79087000  0.43228911
   0.44444000  0.88889000  0.04751000
   0.42032517  0.83945478  0.50704826
   0.33851624  0.66148376  0.38021453
   0.55556000  0.77778000  0.19748000
   0.66667000  0.66667000  0.12250000
   0.76084099  0.87666332  0.27480920
   0.89332121  0.80585525  0.42791530
   0.77778000  0.88889000  0.04751000
   0.83412925  0.93090762  0.51278083
   0.67118688  0.66242825  0.35042838
   0.88889000  0.77778000  0.19748000
Direct configuration=     8
   0.01272490  0.98727510  0.47552425
   0.74788188  0.97931380  0.44916230
   0.02068620  0.25211812  0.44916230
   0.34459010  0.30568866  0.44362083
   0.31690567  0.68309433  0.46846175
   0.69431134  0.65540990  0.44362083
   0.21836005  0.10654574  0.30624933
   0.11111000  0.22222000  0.15999000
   0.32963299  0.00323287  0.46295205
   0.55422571  0.11321824  0.31882191
   0.44444000  0.22222000  0.15999000
   0.88807233  0.11192767  0.30654810
   0.77778000  0.22222000  0.15999000
   0.21852718  0.43943647  0.31406127
   0.11111000  0.55556000  0.15999000
   0.55554052  0.44445948  0.30707979
   0.44444000  0.55556000  0.15999000
   0.65791677  0.34208323  0.46113610
   0.88678176  0.44577429  0.31882191
   0.77778000  0.55556000  0.15999000
   0.99676713  0.67036701  0.46295205
   0.21975619  0.78024381  0.31359854
   0.11111000  0.88889000  0.15999000
   0.56056353  0.78147282  0.31406127
   0.44444000  0.88889000  0.15999000
   0.89345426  0.78163995  0.30624933
   0.77778000  0.88889000  0.15999000
   0.00000000  0.00000000  0.12250000
   0.12309930  0.23891715  0.27467767
   0.19408347  0.10649706  0.42770006
   0.11111000  0.22222000  0.04751000
   0.06910704  0.16555635  0.51280670
   0.00405092  0.99594908  0.32106949
   0.22222000  0.11111000  0.19748000
   0.33333000  0.00000000  0.12250000
   0.44495096  0.22220349  0.27425111
   0.54449685  0.12351255  0.42853487
   0.44444000  0.22222000  0.04751000
   0.41887632  0.24087071  0.49908091
   0.32478458  0.00129661  0.35065649
   0.55556000  0.11111000  0.19748000
   0.66667000  0.00000000  0.12250000
   0.77161802  0.22838198  0.27924032
   0.93188635  0.06811365  0.41723790
   0.77778000  0.22222000  0.04751000
   0.83046765  0.16953235  0.46966217
   0.66895403  0.99846884  0.36279494
   0.88889000  0.11111000  0.19748000
   0.00000000  0.33333000  0.12250000
   0.11851932  0.55705057  0.28375043
   0.20916743  0.36605248  0.43206182
   0.11111000  0.55556000  0.04751000
   0.16026163  0.57981586  0.50689621
   0.00153116  0.33104597  0.36279494
   0.22222000  0.44444000  0.19748000
   0.33333000  0.33333000  0.12250000
   0.43968834  0.56031166  0.28050010
   0.53430214  0.46569786  0.43141206
   0.44444000  0.55556000  0.04751000
   0.40278878  0.59721122  0.49075893
   0.33733497  0.32888855  0.35021851
   0.55556000  0.44444000  0.19748000
   0.66667000  0.33333000  0.12250000
   0.77779651  0.55504904  0.27425111
   0.87648745  0.45550315  0.42853487
   0.77778000  0.55556000  0.04751000
   0.75912929  0.58112368  0.49908091
   0.65914232  0.34085768  0.35226092
   0.88889000  0.44444000  0.19748000
   0.00000000  0.66667000  0.12250000
   0.11803889  0.88196111  0.27166013
   0.22025827  0.77974173  0.42811575
   0.11111000  0.88889000  0.04751000
   0.09991737  0.90008263  0.51117047
   0.99870339  0.67521542  0.35065649
   0.22222000  0.77778000  0.19748000
   0.33333000  0.66667000  0.12250000
   0.44294943  0.88148068  0.28375043
   0.63394752  0.79083257  0.43206182
   0.44444000  0.88889000  0.04751000
   0.42018414  0.83973837  0.50689621
   0.33850252  0.66149748  0.37967769
   0.55556000  0.77778000  0.19748000
   0.66667000  0.66667000  0.12250000
   0.76108285  0.87690070  0.27467767
   0.89350294  0.80591653  0.42770006
   0.77778000  0.88889000  0.04751000
   0.83444365  0.93089296  0.51280670
   0.67111145  0.66266503  0.35021851
   0.88889000  0.77778000  0.19748000
Direct configuration=     9
   0.01314855  0.98685145  0.47635264
   0.74654704  0.97870539  0.44900043
   0.02129461  0.25345296  0.44900043
   0.34472564  0.30589177  0.44297064
   0.31709915  0.68290085  0.46781815
   0.69410823  0.65527436  0.44297064
   0.21858311  0.10658114  0.30641055
   0.11111000  0.22222000  0.15999000
   0.33102332  0.00409520  0.46331599
   0.55392008  0.11290334  0.31891355
   0.44444000  0.22222000  0.15999000
   0.88824936  0.11175064  0.30672055
   0.77778000  0.22222000  0.15999000
   0.21892946  0.43935440  0.31422720
   0.11111000  0.55556000  0.15999000
   0.55545109  0.44454891  0.30711742
   0.44444000  0.55556000  0.15999000
   0.65843200  0.34156800  0.46178764
   0.88709666  0.44607992  0.31891355
   0.77778000  0.55556000  0.15999000
   0.99590480  0.66897668  0.46331599
   0.21972640  0.78027360  0.31313782
   0.11111000  0.88889000  0.15999000
   0.56064560  0.78107054  0.31422720
   0.44444000  0.88889000  0.15999000
   0.89341886  0.78141689  0.30641055
   0.77778000  0.88889000  0.15999000
   0.00000000  0.00000000  0.12250000
   0.12247125  0.23830166  0.27447254
   0.19403989  0.10602708  0.42746098
   0.11111000  0.22222000  0.04751000
   0.06930521  0.16515293  0.51327656
   0.00383348  0.99616652  0.32161195
   0.22222000  0.11111000  0.19748000
   0.33333000  0.00000000  0.12250000
   0.44565819  0.22242488  0.27442035
   0.54483920  0.12398313  0.42818492
   0.44444000  0.22222000  0.04751000
   0.41866997  0.24019650  0.50000275
   0.32558917  0.00092954  0.35085616
   0.55556000  0.11111000  0.19748000
   0.66667000  0.00000000  0.12250000
   0.77164308  0.22835692  0.27952147
   0.93161471  0.06838529  0.41686085
   0.77778000  0.22222000  0.04751000
   0.82981399  0.17018601  0.46980636
   0.66788223  0.99783733  0.36301313
   0.88889000  0.11111000  0.19748000
   0.00000000  0.33333000  0.12250000
   0.11814676  0.55670529  0.28362930
   0.20861475  0.36538874  0.43172388
   0.11111000  0.55556000  0.04751000
   0.15943104  0.58012655  0.50655660
   0.00216267  0.33211777  0.36301313
   0.22222000  0.44444000  0.19748000
   0.33333000  0.33333000  0.12250000
   0.43970680  0.56029320  0.28038539