  12  12   0   0
  0.1361988E+02  0.5467450E-09  0.5467450E-09  0.5467450E-09  0.5000000E-15
  1.000000000000000E-004
  CAR 
 unknown system                          
      9.17859604    -29.19772102  301      5.34895940      1.00000000
    -29.198  0.0000E+00  0.0000E+00
    -29.070  0.0000E+00  0.0000E+00
    -28.942  0.0000E+00  0.0000E+00
    -28.814  0.0000E+00  0.0000E+00
    -28.686  0.0000E+00  0.0000E+00
    -28.558  0.0000E+00  0.0000E+00
    -28.430  0.0000E+00  0.0000E+00
    -28.302  0.0000E+00  0.0000E+00
    -28.174  0.0000E+00  0.0000E+00
    -28.046  0.0000E+00  0.0000E+00
    -27.919  0.0000E+00  0.0000E+00
    -27.791  0.0000E+00  0.0000E+00
    -27.663  0.1445E-11  0.1849E-12
    -27.535  0.2967E-04  0.3795E-05
    -27.407  0.2313E-01  0.2963E-02
    -27.279  0.2257E+00  0.3184E-01
    -27.151  0.3712E+00  0.7933E-01
    -27.023  0.5273E-02  0.8000E-01
    -26.895  0.3324E-08  0.8000E-01
    -26.767  0.0000E+00  0.8000E-01
    -26.639  0.0000E+00  0.8000E-01
    -26.511  0.0000E+00  0.8000E-01
    -26.383  0.0000E+00  0.8000E-01
    -26.256  0.0000E+00  0.8000E-01
    -26.128  0.0000E+00  0.8000E-01
    -26.000  0.0000E+00  0.8000E-01
    -25.872  0.0000E+00  0.8000E-01
    -25.744  0.0000E+00  0.8000E-01
    -25.616  0.0000E+00  0.8000E-01
    -25.488  0.0000E+00  0.8000E-01
    -25.360  0.0000E+00  0.8000E-01
    -25.232  0.0000E+00  0.8000E-01
    -25.104  0.0000E+00  0.8000E-01
    -24.976  0.0000E+00  0.8000E-01
    -24.848  0.0000E+00  0.8000E-01
    -24.720  0.0000E+00  0.8000E-01
    -24.593  0.0000E+00  0.8000E-01
    -24.465  0.0000E+00  0.8000E-01
    -24.337  0.0000E+00  0.8000E-01
    -24.209  0.0000E+00  0.8000E-01
    -24.081  0.0000E+00  0.8000E-01
    -23.953  0.0000E+00  0.8000E-01
    -23.825  0.0000E+00  0.8000E-01
    -23.697  0.0000E+00  0.8000E-01
    -23.569  0.0000E+00  0.8000E-01
    -23.441  0.0000E+00  0.8000E-01
    -23.313  0.0000E+00  0.8000E-01
    -23.185  0.0000E+00  0.8000E-01
    -23.058  0.0000E+00  0.8000E-01
    -22.930  0.0000E+00  0.8000E-01
    -22.802  0.0000E+00  0.8000E-01
    -22.674  0.0000E+00  0.8000E-01
    -22.546  0.0000E+00  0.8000E-01
    -22.418  0.0000E+00  0.8000E-01
    -22.290  0.0000E+00  0.8000E-01
    -22.162  0.0000E+00  0.8000E-01
    -22.034  0.0000E+00  0.8000E-01
    -21.906  0.0000E+00  0.8000E-01
    -21.778  0.0000E+00  0.8000E-01
    -21.650  0.0000E+00  0.8000E-01
    -21.522  0.0000E+00  0.8000E-01
    -21.395  0.0000E+00  0.8000E-01
    -21.267  0.0000E+00  0.8000E-01
    -21.139  0.0000E+00  0.8000E-01
    -21.011  0.0000E+00  0.8000E-01
    -20.883  0.0000E+00  0.8000E-01
    -20.755  0.0000E+00  0.8000E-01
    -20.627  0.0000E+00  0.8000E-01
    -20.499  0.0000E+00  0.8000E-01
    -20.371  0.0000E+00  0.8000E-01
    -20.243  0.0000E+00  0.8000E-01
    -20.115  0.0000E+00  0.8000E-01
    -19.987  0.0000E+00  0.8000E-01
    -19.859  0.0000E+00  0.8000E-01
    -19.732  0.0000E+00  0.8000E-01
    -19.604  0.0000E+00  0.8000E-01
    -19.476  0.0000E+00  0.8000E-01
    -19.348  0.0000E+00  0.8000E-01
    -19.220  0.0000E+00  0.8000E-01
    -19.092  0.0000E+00  0.8000E-01
    -18.964  0.0000E+00  0.8000E-01
    -18.836  0.0000E+00  0.8000E-01
    -18.708  0.0000E+00  0.8000E-01
    -18.580  0.0000E+00  0.8000E-01
    -18.452  0.0000E+00  0.8000E-01
    -18.324  0.0000E+00  0.8000E-01
    -18.197  0.0000E+00  0.8000E-01
    -18.069  0.0000E+00  0.8000E-01
    -17.941  0.0000E+00  0.8000E-01
    -17.813  0.0000E+00  0.8000E-01
    -17.685  0.0000E+00  0.8000E-01
    -17.557  0.0000E+00  0.8000E-01
    -17.429  0.0000E+00  0.8000E-01
    -17.301  0.0000E+00  0.8000E-01
    -17.173  0.0000E+00  0.8000E-01
    -17.045  0.0000E+00  0.8000E-01
    -16.917  0.0000E+00  0.8000E-01
    -16.789  0.0000E+00  0.8000E-01
    -16.661  0.0000E+00  0.8000E-01
    -16.534  0.0000E+00  0.8000E-01
    -16.406  0.0000E+00  0.8000E-01
    -16.278  0.0000E+00  0.8000E-01
    -16.150  0.0000E+00  0.8000E-01
    -16.022  0.0000E+00  0.8000E-01
    -15.894  0.0000E+00  0.8000E-01
    -15.766  0.0000E+00  0.8000E-01
    -15.638  0.0000E+00  0.8000E-01
    -15.510  0.0000E+00  0.8000E-01
    -15.382  0.0000E+00  0.8000E-01
    -15.254  0.0000E+00  0.8000E-01
    -15.126  0.0000E+00  0.8000E-01
    -14.998  0.0000E+00  0.8000E-01
    -14.871  0.0000E+00  0.8000E-01
    -14.743  0.0000E+00  0.8000E-01
    -14.615  0.0000E+00  0.8000E-01
    -14.487  0.0000E+00  0.8000E-01
    -14.359  0.0000E+00  0.8000E-01
    -14.231  0.0000E+00  0.8000E-01
    -14.103  0.0000E+00  0.8000E-01
    -13.975  0.0000E+00  0.8000E-01
    -13.847  0.1393E-17  0.8000E-01
    -13.719  0.7803E-08  0.8000E-01
    -13.591  0.3413E-03  0.8004E-01
    -13.463  0.1224E-01  0.8161E-01
    -13.336  0.3088E-01  0.8556E-01
    -13.208  0.4614E-01  0.9146E-01
    -13.080  0.1340E+00  0.1086E+00
    -12.952  0.1327E+00  0.1256E+00
    -12.824  0.1335E+00  0.1427E+00
    -12.696  0.4337E-01  0.1482E+00
    -12.568  0.5500E-01  0.1552E+00
    -12.440  0.4149E-01  0.1605E+00
    -12.312  0.5280E-01  0.1673E+00
    -12.184  0.5744E-01  0.1746E+00
    -12.056  0.6158E-01  0.1825E+00
    -11.928  0.3988E-01  0.1876E+00
    -11.800  0.5313E-01  0.1944E+00
    -11.673  0.6181E-01  0.2023E+00
    -11.545  0.3421E-01  0.2067E+00
    -11.417  0.4786E-01  0.2128E+00
    -11.289  0.4224E-01  0.2182E+00
    -11.161  0.3700E-01  0.2230E+00
    -11.033  0.4302E-01  0.2285E+00
    -10.905  0.1845E-01  0.2308E+00
    -10.777  0.2811E-01  0.2344E+00
    -10.649  0.1282E-01  0.2361E+00
    -10.521  0.1384E-01  0.2378E+00
    -10.393  0.1132E-01  0.2393E+00
    -10.265  0.5661E-02  0.2400E+00
    -10.137  0.6509E-01  0.2483E+00
    -10.010  0.1730E+00  0.2705E+00
     -9.882  0.1980E+00  0.2958E+00
     -9.754  0.1684E+00  0.3173E+00
     -9.626  0.1170E+00  0.3323E+00
     -9.498  0.4477E-01  0.3380E+00
     -9.370  0.5365E-01  0.3449E+00
     -9.242  0.7554E-01  0.3545E+00
     -9.114  0.5296E-01  0.3613E+00
     -8.986  0.4934E-01  0.3676E+00
     -8.858  0.4402E-01  0.3733E+00
     -8.730  0.7470E-01  0.3828E+00
     -8.602  0.4189E-01  0.3882E+00
     -8.475  0.4883E-01  0.3944E+00
     -8.347  0.3942E-01  0.3995E+00
     -8.219  0.3864E-01  0.4044E+00
     -8.091  0.4682E-01  0.4104E+00
     -7.963  0.4263E-01  0.4158E+00
     -7.835  0.4065E-01  0.4210E+00
     -7.707  0.9839E-01  0.4336E+00
     -7.579  0.1087E+00  0.4475E+00
     -7.451  0.7814E-01  0.4575E+00
     -7.323  0.6852E-01  0.4663E+00
     -7.195  0.3853E-01  0.4712E+00
     -7.067  0.1857E-01  0.4736E+00
     -6.939  0.2704E-01  0.4771E+00
     -6.812  0.1108E-01  0.4785E+00
     -6.684  0.1043E-01  0.4798E+00
     -6.556  0.1411E-02  0.4800E+00
     -6.428  0.4621E-05  0.4800E+00
     -6.300  0.4174E-12  0.4800E+00
     -6.172  0.0000E+00  0.4800E+00
     -6.044  0.0000E+00  0.4800E+00
     -5.916  0.0000E+00  0.4800E+00
     -5.788  0.0000E+00  0.4800E+00
     -5.660  0.0000E+00  0.4800E+00
     -5.532  0.0000E+00  0.4800E+00
     -5.404  0.0000E+00  0.4800E+00
     -5.276  0.0000E+00  0.4800E+00
     -5.149  0.0000E+00  0.4800E+00
     -5.021  0.0000E+00  0.4800E+00
     -4.893  0.0000E+00  0.4800E+00
     -4.765  0.0000E+00  0.4800E+00
     -4.637  0.0000E+00  0.4800E+00
     -4.509  0.0000E+00  0.4800E+00
     -4.381  0.0000E+00  0.4800E+00
     -4.253  0.0000E+00  0.4800E+00
     -4.125  0.0000E+00  0.4800E+00
     -3.997  0.0000E+00  0.4800E+00
     -3.869  0.0000E+00  0.4800E+00
     -3.741  0.0000E+00  0.4800E+00
     -3.614  0.0000E+00  0.4800E+00
     -3.486  0.0000E+00  0.4800E+00
     -3.358  0.0000E+00  0.4800E+00
     -3.230  0.0000E+00  0.4800E+00
     -3.102  0.0000E+00  0.4800E+00
     -2.974  0.0000E+00  0.4800E+00
     -2.846  0.0000E+00  0.4800E+00
     -2.718  0.0000E+00  0.4800E+00
     -2.590  0.0000E+00  0.4800E+00
     -2.462  0.0000E+00  0.4800E+00
     -2.334  0.0000E+00  0.4800E+00
     -2.206  0.0000E+00  0.4800E+00
     -2.078  0.0000E+00  0.4800E+00
     -1.951  0.0000E+00  0.4800E+00
     -1.823  0.0000E+00  0.4800E+00
     -1.695  0.0000E+00  0.4800E+00
     -1.567  0.0000E+00  0.4800E+00
     -1.439  0.0000E+00  0.4800E+00
     -1.311  0.0000E+00  0.4800E+00
     -1.183  0.0000E+00  0.4800E+00
     -1.055  0.0000E+00  0.4800E+00
     -0.927  0.0000E+00  0.4800E+00
     -0.799  0.0000E+00  0.4800E+00
     -0.671  0.0000E+00  0.4800E+00
     -0.543  0.0000E+00  0.4800E+00
     -0.415  0.0000E+00  0.4800E+00
     -0.288  0.0000E+00  0.4800E+00
     -0.160  0.0000E+00  0.4800E+00
     -0.032  0.0000E+00  0.4800E+00
      0.096  0.0000E+00  0.4800E+00
      0.224  0.0000E+00  0.4800E+00
      0.352  0.0000E+00  0.4800E+00
      0.480  0.0000E+00  0.4800E+00
      0.608  0.0000E+00  0.4800E+00
      0.736  0.0000E+00  0.4800E+00
      0.864  0.0000E+00  0.4800E+00
      0.992  0.5807E-15  0.4800E+00
      1.120  0.1938E-06  0.4800E+00
      1.247  0.5018E-03  0.4801E+00
      1.375  0.1015E-01  0.4814E+00
      1.503  0.2563E-01  0.4846E+00
      1.631  0.4821E-01  0.4908E+00
      1.759  0.4901E-01  0.4971E+00
      1.887  0.8311E-01  0.5077E+00
      2.015  0.6650E-01  0.5162E+00
      2.143  0.1511E+00  0.5355E+00
      2.271  0.1303E+00  0.5522E+00
      2.399  0.2087E+00  0.5789E+00
      2.527  0.1568E+00  0.5990E+00
      2.655  0.8082E-01  0.6093E+00
      2.783  0.1247E+00  0.6253E+00
      2.910  0.1506E+00  0.6445E+00
      3.038  0.1228E+00  0.6602E+00
      3.166  0.1598E+00  0.6807E+00
      3.294  0.1327E+00  0.6976E+00
      3.422  0.1031E+00  0.7108E+00
      3.550  0.8427E-01  0.7216E+00
      3.678  0.1207E+00  0.7371E+00
      3.806  0.1251E+00  0.7531E+00
      3.934  0.1548E+00  0.7729E+00
      4.062  0.1854E+00  0.7966E+00
      4.190  0.1904E+00  0.8209E+00
      4.318  0.2256E+00  0.8498E+00
      4.446  0.1507E+00  0.8691E+00
      4.573  0.1561E+00  0.8890E+00
      4.701  0.1662E+00  0.9103E+00
      4.829  0.2308E+00  0.9398E+00
      4.957  0.1258E+00  0.9559E+00
      5.085  0.3163E-01  0.9600E+00
      5.213  0.2464E-03  0.9600E+00
      5.341  0.2756E-09  0.9600E+00
      5.469  0.0000E+00  0.9600E+00
      5.597  0.0000E+00  0.9600E+00
      5.725  0.0000E+00  0.9600E+00
      5.853  0.0000E+00  0.9600E+00
      5.981  0.0000E+00  0.9600E+00
      6.108  0.0000E+00  0.9600E+00
      6.236  0.0000E+00  0.9600E+00
      6.364  0.0000E+00  0.9600E+00
      6.492  0.0000E+00  0.9600E+00
      6.620  0.6181E-16  0.9600E+00
      6.748  0.2309E-06  0.9600E+00
      6.876  0.1207E-01  0.9615E+00
      7.004  0.4486E+00  0.1019E+01
      7.132  0.9198E+00  0.1137E+01
      7.260  0.8933E+00  0.1251E+01
      7.388  0.2126E+00  0.1278E+01
      7.516  0.1526E-01  0.1280E+01
      7.644  0.4609E-04  0.1280E+01
      7.771  0.5372E-11  0.1280E+01
      7.899  0.0000E+00  0.1280E+01
      8.027  0.0000E+00  0.1280E+01
      8.155  0.0000E+00  0.1280E+01
      8.283  0.0000E+00  0.1280E+01
      8.411  0.0000E+00  0.1280E+01
      8.539  0.0000E+00  0.1280E+01
      8.667  0.0000E+00  0.1280E+01
      8.795  0.0000E+00  0.1280E+01
      8.923  0.0000E+00  0.1280E+01
      9.051  0.0000E+00  0.1280E+01
      9.179  0.0000E+00  0.1280E+01
