<?xml version="1.0" encoding="ISO-8859-1"?>
<modeling>
 <generator>
  <i name="program" type="string">vasp </i>
  <i name="version" type="string">6.4.3  </i>
  <i name="subversion" type="string">19Mar24 (build Mar 01 2025 18:03:59) gamma-only                       parallel </i>
  <i name="platform" type="string">Shaheen </i>
  <i name="date" type="string">2025 04 28 </i>
  <i name="time" type="string">19:36:26 </i>
 </generator>
 <incar>
  <i type="int" name="ISTART">     1</i>
  <i type="string" name="PREC">Accurate   (Precision level: Normal or Accurate, set Accurate when perform structure lattice relaxation calculation)</i>
  <i type="logical" name="ADDGRID"> T  </i>
  <i type="int" name="ISPIN">     2</i>
  <i type="int" name="NELM">    90</i>
  <i type="int" name="NELMIN">     6</i>
  <i type="int" name="IBRION">     2</i>
  <i name="EDIFF">      0.00000100</i>
  <i name="EDIFFG">     -0.02000000</i>
  <i type="int" name="NSW">   300</i>
  <i type="int" name="ISIF">     2</i>
  <i name="ENCUT">    520.00000000</i>
  <v name="MAGMOM">      1.00000000      1.00000000      1.00000000      1.00000000      1.00000000      1.00000000      1.00000000      1.00000000      1.00000000      1.00000000      1.00000000      1.00000000      1.00000000      1.00000000      1.00000000      1.00000000      1.00000000      1.00000000      1.00000000      1.00000000
      1.00000000      1.00000000      1.00000000      1.00000000      1.00000000      1.00000000      1.00000000      1.00000000      1.00000000      1.00000000      1.00000000      1.00000000      0.60000000      0.60000000      0.60000000      0.60000000      0.60000000      0.60000000      0.60000000      0.60000000
      0.60000000      0.60000000      0.60000000      0.60000000      0.60000000      0.60000000      0.60000000      0.60000000      0.60000000      0.60000000      0.60000000      0.60000000      0.60000000      0.60000000      0.60000000      0.60000000      0.60000000      0.60000000      0.60000000      0.60000000
      0.60000000      0.60000000      0.60000000      0.60000000      0.60000000      0.60000000      0.60000000      0.60000000      0.60000000      0.60000000      0.60000000      0.60000000      0.60000000      0.60000000      0.60000000      0.60000000      0.60000000      0.60000000      0.60000000      0.60000000
      0.60000000      0.60000000      0.60000000      0.60000000      0.60000000      0.60000000      0.60000000      0.60000000      0.60000000      0.60000000      0.60000000      0.60000000      0.60000000      0.60000000      0.60000000      0.60000000      0.60000000      0.60000000      0.60000000      0.60000000
      0.60000000      0.60000000      0.60000000      0.60000000      0.60000000      0.60000000      0.60000000      0.60000000      0.60000000      0.60000000      0.60000000      0.60000000      0.60000000      0.60000000      0.60000000      0.60000000      0.60000000      0.60000000      0.60000000      0.60000000
      0.60000000      0.60000000      0.60000000      0.60000000      0.60000000      0.60000000      0.60000000      0.60000000      0.60000000      0.60000000      0.60000000      0.60000000      0.60000000      0.60000000      0.60000000      0.60000000      0.60000000      0.60000000      0.60000000      0.60000000
      0.60000000      0.60000000      0.60000000      0.60000000      0.60000000      0.60000000      0.60000000      0.60000000      0.60000000      0.60000000      0.60000000      0.60000000</v>
  <i type="logical" name="LREAL"> F  </i>
  <i type="int" name="ISMEAR">     0</i>
  <i name="SIGMA">      0.05000000</i>
  <i type="int" name="LMAXMIX">     6</i>
  <i type="logical" name="LWAVE"> F  </i>
  <i type="logical" name="LCHARG"> F  </i>
  <i type="logical" name="LASPH"> T  </i>
  <i type="logical" name="LDAU"> T  </i>
  <i type="int" name="LDAUTYPE">     2</i>
  <v type="int" name="LDAUL">     3    -1     2</v>
  <v name="LDAUU">      5.00000000      0.00000000      2.00000000</v>
  <v name="LDAUJ">      0.00000000      0.00000000      0.00000000</v>
 </incar>
 <primitive_cell>
  <structure name="primitive_cell" >
   <crystal>
    <varray name="basis" >
     <v>      15.46430016       0.00000000       0.00000000 </v>
     <v>      -7.73215008      13.39247679       0.00000000 </v>
     <v>       0.00000000       0.00000000      21.04820061 </v>
    </varray>
    <i name="volume">   4359.19349823 </i>
    <varray name="rec_basis" >
     <v>       0.06466507       0.03733439       0.00000000 </v>
     <v>       0.00000000       0.07466879       0.00000000 </v>
     <v>       0.00000000       0.00000000       0.04751000 </v>
    </varray>
   </crystal>
   <varray name="positions" >
    <v>       0.00000000       0.00000000       0.45993000 </v>
    <v>       0.16667000       0.08333000       0.30996000 </v>
    <v>       0.25000000       0.00000000       0.45993000 </v>
    <v>       0.41667000       0.08333000       0.30996000 </v>
    <v>       0.50000000       0.00000000       0.45993000 </v>
    <v>       0.66667000       0.08333000       0.30996000 </v>
    <v>       0.75000000       0.00000000       0.45993000 </v>
    <v>       0.91667000       0.08333000       0.30996000 </v>
    <v>       0.00000000       0.25000000       0.45993000 </v>
    <v>       0.16667000       0.33333000       0.30996000 </v>
    <v>       0.25000000       0.25000000       0.45993000 </v>
    <v>       0.41667000       0.33333000       0.30996000 </v>
    <v>       0.50000000       0.25000000       0.45993000 </v>
    <v>       0.66667000       0.33333000       0.30996000 </v>
    <v>       0.75000000       0.25000000       0.45993000 </v>
    <v>       0.91667000       0.33333000       0.30996000 </v>
    <v>       0.00000000       0.50000000       0.45993000 </v>
    <v>       0.16667000       0.58333000       0.30996000 </v>
    <v>       0.25000000       0.50000000       0.45993000 </v>
    <v>       0.41667000       0.58333000       0.30996000 </v>
    <v>       0.50000000       0.50000000       0.45993000 </v>
    <v>       0.66667000       0.58333000       0.30996000 </v>
    <v>       0.75000000       0.50000000       0.45993000 </v>
    <v>       0.91667000       0.58333000       0.30996000 </v>
    <v>       0.00000000       0.75000000       0.45993000 </v>
    <v>       0.16667000       0.83333000       0.30996000 </v>
    <v>       0.25000000       0.75000000       0.45993000 </v>
    <v>       0.41667000       0.83333000       0.30996000 </v>
    <v>       0.50000000       0.75000000       0.45993000 </v>
    <v>       0.66667000       0.83333000       0.30996000 </v>
    <v>       0.75000000       0.75000000       0.45993000 </v>
    <v>       0.91667000       0.83333000       0.30996000 </v>
    <v>       0.00000000       0.00000000       0.57241000 </v>
    <v>       0.08333000       0.16667000       0.27247000 </v>
    <v>       0.16667000       0.08333000       0.42244000 </v>
    <v>       0.08333000       0.16667000       0.49742000 </v>
    <v>       0.00000000       0.00000000       0.34745000 </v>
    <v>       0.16667000       0.08333000       0.19748000 </v>
    <v>       0.25000000       0.00000000       0.57241000 </v>
    <v>       0.33333000       0.16667000       0.27247000 </v>
    <v>       0.41667000       0.08333000       0.42244000 </v>
    <v>       0.33333000       0.16667000       0.49742000 </v>
    <v>       0.25000000       0.00000000       0.34745000 </v>
    <v>       0.41667000       0.08333000       0.19748000 </v>
    <v>       0.50000000       0.00000000       0.57241000 </v>
    <v>       0.58333000       0.16667000       0.27247000 </v>
    <v>       0.66667000       0.08333000       0.42244000 </v>
    <v>       0.58333000       0.16667000       0.49742000 </v>
    <v>       0.50000000       0.00000000       0.34745000 </v>
    <v>       0.66667000       0.08333000       0.19748000 </v>
    <v>       0.75000000       0.00000000       0.57241000 </v>
    <v>       0.83333000       0.16667000       0.27247000 </v>
    <v>       0.91667000       0.08333000       0.42244000 </v>
    <v>       0.83333000       0.16667000       0.49742000 </v>
    <v>       0.75000000       0.00000000       0.34745000 </v>
    <v>       0.91667000       0.08333000       0.19748000 </v>
    <v>       0.00000000       0.25000000       0.57241000 </v>
    <v>       0.08333000       0.41667000       0.27247000 </v>
    <v>       0.16667000       0.33333000       0.42244000 </v>
    <v>       0.08333000       0.41667000       0.49742000 </v>
    <v>       0.00000000       0.25000000       0.34745000 </v>
    <v>       0.16667000       0.33333000       0.19748000 </v>
    <v>       0.25000000       0.25000000       0.57241000 </v>
    <v>       0.33333000       0.41667000       0.27247000 </v>
    <v>       0.41667000       0.33333000       0.42244000 </v>
    <v>       0.33333000       0.41667000       0.49742000 </v>
    <v>       0.25000000       0.25000000       0.34745000 </v>
    <v>       0.41667000       0.33333000       0.19748000 </v>
    <v>       0.50000000       0.25000000       0.57241000 </v>
    <v>       0.58333000       0.41667000       0.27247000 </v>
    <v>       0.66667000       0.33333000       0.42244000 </v>
    <v>       0.58333000       0.41667000       0.49742000 </v>
    <v>       0.50000000       0.25000000       0.34745000 </v>
    <v>       0.66667000       0.33333000       0.19748000 </v>
    <v>       0.75000000       0.25000000       0.57241000 </v>
    <v>       0.83333000       0.41667000       0.27247000 </v>
    <v>       0.91667000       0.33333000       0.42244000 </v>
    <v>       0.83333000       0.41667000       0.49742000 </v>
    <v>       0.75000000       0.25000000       0.34745000 </v>
    <v>       0.91667000       0.33333000       0.19748000 </v>
    <v>       0.00000000       0.50000000       0.57241000 </v>
    <v>       0.08333000       0.66667000       0.27247000 </v>
    <v>       0.16667000       0.58333000       0.42244000 </v>
    <v>       0.08333000       0.66667000       0.49742000 </v>
    <v>       0.00000000       0.50000000       0.34745000 </v>
    <v>       0.16667000       0.58333000       0.19748000 </v>
    <v>       0.25000000       0.50000000       0.57241000 </v>
    <v>       0.33333000       0.66667000       0.27247000 </v>
    <v>       0.41667000       0.58333000       0.42244000 </v>
    <v>       0.33333000       0.66667000       0.49742000 </v>
    <v>       0.25000000       0.50000000       0.34745000 </v>
    <v>       0.41667000       0.58333000       0.19748000 </v>
    <v>       0.50000000       0.50000000       0.57241000 </v>
    <v>       0.58333000       0.66667000       0.27247000 </v>
    <v>       0.66667000       0.58333000       0.42244000 </v>
    <v>       0.58333000       0.66667000       0.49742000 </v>
    <v>       0.50000000       0.50000000       0.34745000 </v>
    <v>       0.66667000       0.58333000       0.19748000 </v>
    <v>       0.75000000       0.50000000       0.57241000 </v>
    <v>       0.83333000       0.66667000       0.27247000 </v>
    <v>       0.91667000       0.58333000       0.42244000 </v>
    <v>       0.83333000       0.66667000       0.49742000 </v>
    <v>       0.75000000       0.50000000       0.34745000 </v>
    <v>       0.91667000       0.58333000       0.19748000 </v>
    <v>       0.00000000       0.75000000       0.57241000 </v>
    <v>       0.08333000       0.91667000       0.27247000 </v>
    <v>       0.16667000       0.83333000       0.42244000 </v>
    <v>       0.08333000       0.91667000       0.49742000 </v>
    <v>       0.00000000       0.75000000       0.34745000 </v>
    <v>       0.16667000       0.83333000       0.19748000 </v>
    <v>       0.25000000       0.75000000       0.57241000 </v>
    <v>       0.33333000       0.91667000       0.27247000 </v>
    <v>       0.41667000       0.83333000       0.42244000 </v>
    <v>       0.33333000       0.91667000       0.49742000 </v>
    <v>       0.25000000       0.75000000       0.34745000 </v>
    <v>       0.41667000       0.83333000       0.19748000 </v>
    <v>       0.50000000       0.75000000       0.57241000 </v>
    <v>       0.58333000       0.91667000       0.27247000 </v>
    <v>       0.66667000       0.83333000       0.42244000 </v>
    <v>       0.58333000       0.91667000       0.49742000 </v>
    <v>       0.50000000       0.75000000       0.34745000 </v>
    <v>       0.66667000       0.83333000       0.19748000 </v>
    <v>       0.75000000       0.75000000       0.57241000 </v>
    <v>       0.83333000       0.91667000       0.27247000 </v>
    <v>       0.91667000       0.83333000       0.42244000 </v>
    <v>       0.83333000       0.91667000       0.49742000 </v>
    <v>       0.75000000       0.75000000       0.34745000 </v>
    <v>       0.91667000       0.83333000       0.19748000 </v>
    <v>       0.58333000       0.42313000       0.64471000 </v>
    <v>       0.33333000       0.67313000       0.64471000 </v>
    <v>       0.83333000       0.67313000       0.64471000 </v>
    <v>       0.58333000       0.92313000       0.64471000 </v>
    <v>       0.67274000       0.33528000       0.64832000 </v>
    <v>       0.42274000       0.58528000       0.64832000 </v>
    <v>       0.92274000       0.58528000       0.64832000 </v>
    <v>       0.67274000       0.83528000       0.64832000 </v>
    <v>       0.67456000       0.33342000       0.50166000 </v>
    <v>       0.42456000       0.58342000       0.50166000 </v>
    <v>       0.92456000       0.58342000       0.50166000 </v>
    <v>       0.67456000       0.83342000       0.50166000 </v>
    <v>       0.32946000       0.17333000       0.64471000 </v>
    <v>       0.07946000       0.42333000       0.64471000 </v>
    <v>       0.41887000       0.08548000       0.64832000 </v>
    <v>       0.16887000       0.33548000       0.64832000 </v>
    <v>       0.42069000       0.08361000       0.50166000 </v>
    <v>       0.17069000       0.33361000       0.50166000 </v>
    <v>       0.62755000       0.87171000       0.57241000 </v>
    <v>       0.38290000       0.63176000       0.57241000 </v>
    <v>       0.88375000       0.62820000       0.57241000 </v>
    <v>       0.63909000       0.38824000       0.57241000 </v>
    <v>       0.12902000       0.38196000       0.57241000 </v>
    <v>       0.38522000       0.13844000       0.57241000 </v>
   </varray>
  </structure>
  <varray name="primitive_index" >
   <v type="int" >        1 </v>
   <v type="int" >        2 </v>
   <v type="int" >        3 </v>
   <v type="int" >        4 </v>
   <v type="int" >        5 </v>
   <v type="int" >        6 </v>
   <v type="int" >        7 </v>
   <v type="int" >        8 </v>
   <v type="int" >        9 </v>
   <v type="int" >       10 </v>
   <v type="int" >       11 </v>
   <v type="int" >       12 </v>
   <v type="int" >       13 </v>
   <v type="int" >       14 </v>
   <v type="int" >       15 </v>
   <v type="int" >       16 </v>
   <v type="int" >       17 </v>
   <v type="int" >       18 </v>
   <v type="int" >       19 </v>
   <v type="int" >       20 </v>
   <v type="int" >       21 </v>
   <v type="int" >       22 </v>
   <v type="int" >       23 </v>
   <v type="int" >       24 </v>
   <v type="int" >       25 </v>
   <v type="int" >       26 </v>
   <v type="int" >       27 </v>
   <v type="int" >       28 </v>
   <v type="int" >       29 </v>
   <v type="int" >       30 </v>
   <v type="int" >       31 </v>
   <v type="int" >       32 </v>
   <v type="int" >       33 </v>
   <v type="int" >       34 </v>
   <v type="int" >       35 </v>
   <v type="int" >       36 </v>
   <v type="int" >       37 </v>
   <v type="int" >       38 </v>
   <v type="int" >       39 </v>
   <v type="int" >       40 </v>
   <v type="int" >       41 </v>
   <v type="int" >       42 </v>
   <v type="int" >       43 </v>
   <v type="int" >       44 </v>
   <v type="int" >       45 </v>
   <v type="int" >       46 </v>
   <v type="int" >       47 </v>
   <v type="int" >       48 </v>
   <v type="int" >       49 </v>
   <v type="int" >       50 </v>
   <v type="int" >       51 </v>
   <v type="int" >       52 </v>
   <v type="int" >       53 </v>
   <v type="int" >       54 </v>
   <v type="int" >       55 </v>
   <v type="int" >       56 </v>
   <v type="int" >       57 </v>
   <v type="int" >       58 </v>
   <v type="int" >       59 </v>
   <v type="int" >       60 </v>
   <v type="int" >       61 </v>
   <v type="int" >       62 </v>
   <v type="int" >       63 </v>
   <v type="int" >       64 </v>
   <v type="int" >       65 </v>
   <v type="int" >       66 </v>
   <v type="int" >       67 </v>
   <v type="int" >       68 </v>
   <v type="int" >       69 </v>
   <v type="int" >       70 </v>
   <v type="int" >       71 </v>
   <v type="int" >       72 </v>
   <v type="int" >       73 </v>
   <v type="int" >       74 </v>
   <v type="int" >       75 </v>
   <v type="int" >       76 </v>
   <v type="int" >       77 </v>
   <v type="int" >       78 </v>
   <v type="int" >       79 </v>
   <v type="int" >       80 </v>
   <v type="int" >       81 </v>
   <v type="int" >       82 </v>
   <v type="int" >       83 </v>
   <v type="int" >       84 </v>
   <v type="int" >       85 </v>
   <v type="int" >       86 </v>
   <v type="int" >       87 </v>
   <v type="int" >       88 </v>
   <v type="int" >       89 </v>
   <v type="int" >       90 </v>
   <v type="int" >       91 </v>
   <v type="int" >       92 </v>
   <v type="int" >       93 </v>
   <v type="int" >       94 </v>
   <v type="int" >       95 </v>
   <v type="int" >       96 </v>
   <v type="int" >       97 </v>
   <v type="int" >       98 </v>
   <v type="int" >       99 </v>
   <v type="int" >      100 </v>
   <v type="int" >      101 </v>
   <v type="int" >      102 </v>
   <v type="int" >      103 </v>
   <v type="int" >      104 </v>
   <v type="int" >      105 </v>
   <v type="int" >      106 </v>
   <v type="int" >      107 </v>
   <v type="int" >      108 </v>
   <v type="int" >      109 </v>
   <v type="int" >      110 </v>
   <v type="int" >      111 </v>
   <v type="int" >      112 </v>
   <v type="int" >      113 </v>
   <v type="int" >      114 </v>
   <v type="int" >      115 </v>
   <v type="int" >      116 </v>
   <v type="int" >      117 </v>
   <v type="int" >      118 </v>
   <v type="int" >      119 </v>
   <v type="int" >      120 </v>
   <v type="int" >      121 </v>
   <v type="int" >      122 </v>
   <v type="int" >      123 </v>
   <v type="int" >      124 </v>
   <v type="int" >      125 </v>
   <v type="int" >      126 </v>
   <v type="int" >      127 </v>
   <v type="int" >      128 </v>
   <v type="int" >      129 </v>
   <v type="int" >      130 </v>
   <v type="int" >      131 </v>
   <v type="int" >      132 </v>
   <v type="int" >      133 </v>
   <v type="int" >      134 </v>
   <v type="int" >      135 </v>
   <v type="int" >      136 </v>
   <v type="int" >      137 </v>
   <v type="int" >      138 </v>
   <v type="int" >      139 </v>
   <v type="int" >      140 </v>
   <v type="int" >      141 </v>
   <v type="int" >      142 </v>
   <v type="int" >      143 </v>
   <v type="int" >      144 </v>
   <v type="int" >      145 </v>
   <v type="int" >      146 </v>
   <v type="int" >      147 </v>
   <v type="int" >      148 </v>
   <v type="int" >      149 </v>
   <v type="int" >      150 </v>
   <v type="int" >      151 </v>
   <v type="int" >      152 </v>
  </varray>
 </primitive_cell>
 <kpoints>
  <generation param="Gamma">
   <v type="int" name="divisions">       1        1        1 </v>
   <v name="usershift">      0.00000000       0.00000000       0.00000000 </v>
   <v name="genvec1">      1.00000000       0.00000000       0.00000000 </v>
   <v name="genvec2">      0.00000000       1.00000000       0.00000000 </v>
   <v name="genvec3">      0.00000000       0.00000000       1.00000000 </v>
   <v name="shift">      0.00000000       0.00000000       0.00000000 </v>
  </generation>
  <varray name="kpointlist" >
   <v>       0.00000000       0.00000000       0.00000000 </v>
  </varray>
  <varray name="weights" >
   <v>       1.00000000 </v>
  </varray>
 </kpoints>
 <parameters>
  <separator name="general" >
   <i type="string" name="SYSTEM">unknown system</i>
   <i type="logical" name="LCOMPAT"> F  </i>
  </separator>
  <separator name="electronic" >
   <i type="string" name="PREC">accura</i>
   <i name="ENMAX">    520.00000000</i>
   <i name="ENAUG">    605.39200000</i>
   <i name="EDIFF">      0.00000100</i>
   <i type="int" name="IALGO">    38</i>
   <i type="int" name="IWAVPR">    11</i>
   <i type="int" name="NBANDS">   768</i>
   <i type="int" name="NBANDSLOW">    -1</i>
   <i type="int" name="NBANDSHIGH">    -1</i>
   <i name="NELECT">   1122.00000000</i>
   <i type="int" name="TURBO">     0</i>
   <i type="int" name="IRESTART">     0</i>
   <i type="int" name="NREBOOT">     0</i>
   <i type="int" name="NMIN">     0</i>
   <i name="EREF">      0.00000000</i>
   <separator name="electronic smearing" >
    <i type="int" name="ISMEAR">     0</i>
    <i name="SIGMA">      0.05000000</i>
    <i name="KSPACING">      0.50000000</i>
    <i type="logical" name="KGAMMA"> T  </i>
    <i type="logical" name="KBLOWUP"> T  </i>
   </separator>
   <separator name="electronic projectors" >
    <i type="logical" name="LREAL"> F  </i>
    <v name="ROPT">      0.00000000      0.00000000      0.00000000</v>
    <i type="int" name="LMAXPAW">  -100</i>
    <i type="int" name="LMAXMIX">     6</i>
    <i type="logical" name="NLSPLINE"> F  </i>
   </separator>
   <separator name="electronic startup" >
    <i type="int" name="ISTART">     0</i>
    <i type="int" name="ICHARG">     2</i>
    <i type="int" name="INIWAV">     1</i>
   </separator>
   <separator name="electronic spin" >
    <i type="int" name="ISPIN">     2</i>
    <i type="logical" name="LNONCOLLINEAR"> F  </i>
    <v name="MAGMOM">      1.00000000      1.00000000      1.00000000      1.00000000      1.00000000      1.00000000      1.00000000      1.00000000      1.00000000      1.00000000      1.00000000      1.00000000      1.00000000      1.00000000      1.00000000      1.00000000      1.00000000      1.00000000      1.00000000      1.00000000
      1.00000000      1.00000000      1.00000000      1.00000000      1.00000000      1.00000000      1.00000000      1.00000000      1.00000000      1.00000000      1.00000000      1.00000000      0.60000000      0.60000000      0.60000000      0.60000000      0.60000000      0.60000000      0.60000000      0.60000000
      0.60000000      0.60000000      0.60000000      0.60000000      0.60000000      0.60000000      0.60000000      0.60000000      0.60000000      0.60000000      0.60000000      0.60000000      0.60000000      0.60000000      0.60000000      0.60000000      0.60000000      0.60000000      0.60000000      0.60000000
      0.60000000      0.60000000      0.60000000      0.60000000      0.60000000      0.60000000      0.60000000      0.60000000      0.60000000      0.60000000      0.60000000      0.60000000      0.60000000      0.60000000      0.60000000      0.60000000      0.60000000      0.60000000      0.60000000      0.60000000
      0.60000000      0.60000000      0.60000000      0.60000000      0.60000000      0.60000000      0.60000000      0.60000000      0.60000000      0.60000000      0.60000000      0.60000000      0.60000000      0.60000000      0.60000000      0.60000000      0.60000000      0.60000000      0.60000000      0.60000000
      0.60000000      0.60000000      0.60000000      0.60000000      0.60000000      0.60000000      0.60000000      0.60000000      0.60000000      0.60000000      0.60000000      0.60000000      0.60000000      0.60000000      0.60000000      0.60000000      0.60000000      0.60000000      0.60000000      0.60000000
      0.60000000      0.60000000      0.60000000      0.60000000      0.60000000      0.60000000      0.60000000      0.60000000      0.60000000      0.60000000      0.60000000      0.60000000      0.60000000      0.60000000      0.60000000      0.60000000      0.60000000      0.60000000      0.60000000      0.60000000
      0.60000000      0.60000000      0.60000000      0.60000000      0.60000000      0.60000000      0.60000000      0.60000000      0.60000000      0.60000000      0.60000000      0.60000000</v>
    <i name="NUPDOWN">     -1.00000000</i>
    <i type="logical" name="LSORBIT"> F  </i>
    <v name="SAXIS">      0.00000000      0.00000000      1.00000000</v>
    <i type="logical" name="LSPIRAL"> F  </i>
    <v name="QSPIRAL">      0.00000000      0.00000000      0.00000000</v>
    <i type="logical" name="LZEROZ"> F  </i>
   </separator>
   <separator name="electronic exchange-correlation" >
    <i type="logical" name="LASPH"> T  </i>
   </separator>
   <separator name="electronic convergence" >
    <i type="int" name="NELM">    90</i>
    <i type="int" name="NELMDL">     0</i>
    <i type="int" name="NELMIN">     6</i>
    <i name="ENINI">    520.00000000</i>
    <separator name="electronic convergence detail" >
     <i type="logical" name="LDIAG"> T  </i>
     <i type="logical" name="LSUBROT"> F  </i>
     <i name="WEIMIN">      0.00100000</i>
     <i name="EBREAK">      0.00000000</i>
     <i name="DEPER">      0.30000000</i>
     <i type="int" name="NRMM">     4</i>
     <i name="TIME">      0.40000000</i>
    </separator>
   </separator>
   <separator name="electronic mixer" >
    <i name="AMIX">      0.40000000</i>
    <i name="BMIX">      1.00000000</i>
    <i name="AMIN">      0.10000000</i>
    <i name="AMIX_MAG">      1.60000000</i>
    <i name="BMIX_MAG">      1.00000000</i>
    <separator name="electronic mixer details" >
     <i type="int" name="IMIX">     4</i>
     <i type="logical" name="MIXFIRST"> F  </i>
     <i type="int" name="MAXMIX">   -45</i>
     <i name="WC">    100.00000000</i>
     <i type="int" name="INIMIX">     1</i>
     <i type="int" name="MIXPRE">     1</i>
     <i type="int" name="MREMOVE">     5</i>
    </separator>
   </separator>
   <separator name="electronic dipolcorrection" >
    <i type="logical" name="LDIPOL"> F  </i>
    <i type="logical" name="LMONO"> F  </i>
    <i type="int" name="IDIPOL">     0</i>
    <i name="EPSILON">      1.00000000</i>
    <v name="DIPOL">   -100.00000000   -100.00000000   -100.00000000</v>
    <i name="EFIELD">      0.00000000</i>
    <i type="logical" name="LVACPOTAV"> F  </i>
   </separator>
  </separator>
  <separator name="grids" >
   <i type="int" name="NGX">   120</i>
   <i type="int" name="NGY">   120</i>
   <i type="int" name="NGZ">   160</i>
   <i type="int" name="NGXF">   240</i>
   <i type="int" name="NGYF">   240</i>
   <i type="int" name="NGZF">   320</i>
   <i type="logical" name="ADDGRID"> T  </i>
  </separator>
  <separator name="ionic" >
   <i type="int" name="NSW">   300</i>
   <i type="int" name="IBRION">     2</i>
   <i type="int" name="MDALGO">     0</i>
   <i type="int" name="ISIF">     2</i>
   <i name="PSTRESS">      0.00000000</i>
   <i name="EDIFFG">     -0.02000000</i>
   <i type="int" name="NFREE">     1</i>
   <i name="POTIM">      0.50000000</i>
   <i name="SMASS">     -3.00000000</i>
   <i name="SCALEE">      1.00000000</i>
  </separator>
  <separator name="ionic md" >
   <i name="TEBEG">      0.00010000</i>
   <i name="TEEND">      0.00010000</i>
   <i type="int" name="NBLOCK">     1</i>
   <i type="int" name="KBLOCK">   300</i>
   <i type="int" name="NPACO">   256</i>
   <i name="APACO">     10.00000000</i>
  </separator>
  <separator name="symmetry" >
   <i type="int" name="ISYM">     2</i>
   <i name="SYMPREC">      0.00001000</i>
  </separator>
  <separator name="dos" >
   <i type="int" name="LORBIT">     0</i>
   <v name="RWIGS">     -1.00000000     -1.00000000     -1.00000000</v>
   <i type="int" name="NEDOS">   301</i>
   <i name="EMIN">     10.00000000</i>
   <i name="EMAX">    -10.00000000</i>
   <i name="EFERMI">      0.00000000</i>
  </separator>
  <separator name="writing" >
   <i type="int" name="NWRITE">     2</i>
   <i type="logical" name="LWAVE"> F  </i>
   <i type="logical" name="LDOWNSAMPLE"> F  </i>
   <i type="logical" name="LCHARG"> F  </i>
   <i type="logical" name="LPARD"> F  </i>
   <i type="logical" name="LVTOT"> F  </i>
   <i type="logical" name="LVHAR"> F  </i>
   <i type="logical" name="LELF"> F  </i>
   <i type="logical" name="LOPTICS"> F  </i>
   <v name="STM">      0.00000000      0.00000000      0.00000000      0.00000000      0.00000000      0.00000000      0.00000000</v>
  </separator>
  <separator name="performance" >
   <i type="int" name="NPAR">    48</i>
   <i type="int" name="NSIM">     4</i>
   <i type="int" name="NBLK">    -1</i>
   <i type="logical" name="LPLANE"> T  </i>
   <i type="logical" name="LSCALAPACK"> T  </i>
   <i type="logical" name="LSCAAWARE"> T  </i>
   <i type="logical" name="LSCALU"> F  </i>
   <i type="logical" name="LASYNC"> F  </i>
   <i type="logical" name="LORBITALREAL"> F  </i>
  </separator>
  <separator name="miscellaneous" >
   <i type="int" name="IDIOT">     3</i>
   <i type="int" name="PHON_NSTRUCT">    -1</i>
   <i type="logical" name="LMUSIC"> F  </i>
   <v name="POMASS">    140.11500000     16.00000000    192.22000000</v>
   <v name="DARWINR">      0.00000000      0.00000000      0.00000000</v>
   <v name="DARWINV">      1.00000000      1.00000000      1.00000000</v>
   <i type="logical" name="LCORR"> T  </i>
  </separator>
  <i type="logical" name="GGA_COMPAT"> T  </i>
  <i type="logical" name="LBERRY"> F  </i>
  <i type="int" name="ICORELEVEL">     0</i>
  <i type="logical" name="LDAU"> T  </i>
  <v type="int" name="LDAUTYPE">     2</v>
  <v type="int" name="LDAUL">     3</v>
  <v name="LDAUU">      5.00000000</v>
  <v name="LDAUJ">      0.00000000</v>
  <i type="int" name="LDAUPRINT">     0</i>
  <i type="int" name="I_CONSTRAINED_M">     0</i>
  <separator name="electronic exchange-correlation" >
   <i type="string" name="GGA    ">PE</i>
   <i type="string" name="XC_C">1</i>
   <i type="int" name="VOSKOWN">     0</i>
   <i type="logical" name="LHFCALC"> F  </i>
   <i type="string" name="PRECFOCK"></i>
   <i type="logical" name="LSYMGRAD"> F  </i>
   <i type="logical" name="LHFONE"> F  </i>
   <i type="logical" name="LRHFCALC"> F  </i>
   <i type="logical" name="LTHOMAS"> F  </i>
   <i type="logical" name="LMODELHF"> F  </i>
   <i type="logical" name="LFOCKACE"> F  </i>
   <i name="ENCUT4O">     -1.00000000</i>
   <i type="int" name="EXXOEP">     0</i>
   <i type="int" name="FOURORBIT">     0</i>
   <i name="AEXX">      0.00000000</i>
   <i name="HFALPHA">      0.00000000</i>
   <i name="MCALPHA">      0.00000000</i>
   <i name="ALDAX">      1.00000000</i>
   <i name="AGGAX">      1.00000000</i>
   <i name="AMGGAX">      1.00000000</i>
   <i name="ALDAC">      1.00000000</i>
   <i name="AGGAC">      1.00000000</i>
   <i name="AMGGAC">      1.00000000</i>
   <i type="int" name="NKREDX">     1</i>
   <i type="int" name="NKREDY">     1</i>
   <i type="int" name="NKREDZ">     1</i>
   <i type="logical" name="SHIFTRED"> F  </i>
   <i type="logical" name="ODDONLY"> F  </i>
   <i type="logical" name="EVENONLY"> F  </i>
   <i type="int" name="LMAXFOCK">     0</i>
   <i type="int" name="NMAXFOCKAE">     0</i>
   <i type="logical" name="LFOCKAEDFT"> F  </i>
   <i name="HFSCREEN">      0.00000000</i>
   <i name="HFSCREENC">      0.00000000</i>
   <i type="int" name="NBANDSGWLOW">     0</i>
  </separator>
  <separator name="vdW DFT" >
   <i type="logical" name="LUSE_VDW"> F  </i>
   <i type="int" name="IVDW_NL">    -1</i>
   <i type="logical" name="LSPIN_VDW"> F  </i>
   <i name="ZAB_VDW">     -0.84910000</i>
   <i name="GAMMA_VDW">      1.39626340</i>
   <i name="ALPHA_VDW">      0.00000000</i>
   <i name="PARAM1">      0.12340000</i>
   <i name="PARAM2">      1.00000000</i>
   <i name="BPARAM">      6.30000000</i>
   <i name="CPARAM">      0.00930000</i>
  </separator>
  <separator name="model GW" >
   <i type="int" name="MODEL_GW">     0</i>
   <i name="MODEL_EPS0">     17.20734276</i>
   <i name="MODEL_ALPHA">      1.00000000</i>
  </separator>
  <separator name="linear response parameters" >
   <i type="logical" name="LEPSILON"> F  </i>
   <i type="logical" name="LRPA"> F  </i>
   <i type="logical" name="LNABLA"> F  </i>
   <i type="logical" name="LVEL"> F  </i>
   <i name="CSHIFT">      0.10000000</i>
   <i name="OMEGAMAX">     -1.00000000</i>
   <i name="DEG_THRESHOLD">      0.00200000</i>
   <i name="RTIME">     -0.10000000</i>
   <i name="WPLASMAI">      0.00000000</i>
   <v name="DFIELD">      0.00000000      0.00000000      0.00000000</v>
   <v name="WPLASMA">      0.00000000      0.00000000      0.00000000      0.00000000      0.00000000      0.00000000      0.00000000      0.00000000      0.00000000</v>
  </separator>
  <separator name="orbital magnetization" >
   <i type="logical" name="NUCIND"> F  </i>
   <v name="MAGPOS">      0.00000000      0.00000000      0.00000000</v>
   <i type="logical" name="LNICSALL"> T  </i>
   <i type="logical" name="ORBITALMAG"> F  </i>
   <i type="logical" name="LMAGBLOCH"> F  </i>
   <i type="logical" name="LCHIMAG"> F  </i>
   <i type="logical" name="LGAUGE"> T  </i>
   <i type="int" name="MAGATOM">     0</i>
   <v name="MAGDIPOL">      0.00000000      0.00000000      0.00000000</v>
   <v name="AVECCONST">      0.00000000      0.00000000      0.00000000</v>
  </separator>
  <separator name="response functions" >
   <i type="logical" name="LALL_IN_ONE"> F  </i>
   <i type="int" name="IALL_IN_ONE">    -1</i>
   <i type="int" name="NBANDS_WAVE">    -1</i>
   <i type="logical" name="LFINITE_TEMPERATURE"> F  </i>
   <i type="logical" name="LADDER"> F  </i>
   <i type="logical" name="LRPAFORCE"> F  </i>
   <i type="logical" name="LFXC"> F  </i>
   <i type="logical" name="LHARTREE"> T  </i>
   <i type="int" name="IBSE">     0</i>
   <v type="int" name="KPOINT">    -1     0     0     0</v>
   <i type="logical" name="LTCTC"> F  </i>
   <i type="logical" name="LTCTE"> F  </i>
   <i type="logical" name="LTETE"> F  </i>
   <i type="logical" name="LTRIPLET"> F  </i>
   <i type="logical" name="LFXCEPS"> F  </i>
   <i type="logical" name="LFXHEG"> F  </i>
   <i type="int" name="NATURALO">     2</i>
   <i type="logical" name="LHOLEGF"> F  </i>
   <i type="logical" name="L2ORDER"> F  </i>
   <i type="logical" name="LDMP1"> F  </i>
   <i type="logical" name="LMP2LT"> F  </i>
   <i type="logical" name="LSMP2LT"> F  </i>
   <i type="logical" name="LGWLF"> F  </i>
   <i name="ENCUTGW">     -1.60000002</i>
   <i name="ENCUTGWSOFT">     -1.60000002</i>
   <i name="ENCUTLF">     -1.00000000</i>
   <i type="logical" name="ESF_SPLINES"> F  </i>
   <i name="ESF_CONV">      0.01000000</i>
   <i type="int" name="ESF_NINTER">    15</i>
   <i type="int" name="LMAXMP2">    -1</i>
   <i name="SCISSOR">      0.00000000</i>
   <i type="int" name="NOMEGA">     0</i>
   <i type="int" name="NOMEGAR">     0</i>
   <i type="int" name="NBANDSGW">    -1</i>
   <i type="int" name="NBANDSO">    -1</i>
   <i type="int" name="NBANDSV">    -1</i>
   <i type="int" name="NELMGW">     1</i>
   <i type="int" name="NELMHF">     1</i>
   <i type="int" name="DIM">     3</i>
   <i type="int" name="IESPILON">     4</i>
   <i type="int" name="ANTIRES">     0</i>
   <i name="OMEGAMAX">    -30.00000000</i>
   <i name="OMEGAMIN">    -30.00000000</i>
   <i name="OMEGATL">   -200.00000000</i>
   <i type="int" name="OMEGAGRID">     0</i>
   <i name="CSHIFT">     -0.10000000</i>
   <i type="logical" name="LSELFENERGY"> F  </i>
   <i type="logical" name="LSPECTRAL"> F  </i>
   <i type="logical" name="LSPECTRALGW"> F  </i>
   <i type="logical" name="LSINGLES"> F  </i>
   <i type="logical" name="LFERMIGW"> F  </i>
   <i type="logical" name="ODDONLYGW"> F  </i>
   <i type="logical" name="EVENONLYGW"> F  </i>
   <i type="int" name="NKREDLFX">     1</i>
   <i type="int" name="NKREDLFY">     1</i>
   <i type="int" name="NKREDLFZ">     1</i>
   <i type="int" name="MAXMEM">  2800</i>
   <i type="int" name="TELESCOPE">     0</i>
   <i type="int" name="NTAUPAR">    -1</i>
   <i type="int" name="NOMEGAPAR">    -1</i>
   <i name="DAMP_NEWTON">      0.80000001</i>
   <i name="LAMBDA">      1.00000000</i>
  </separator>
  <separator name="External order field" >
   <i name="OFIELD_KAPPA">      0.00000000</i>
   <v name="OFIELD_K">      0.00000000      0.00000000      0.00000000</v>
   <i name="OFIELD_Q6_NEAR">      0.00000000</i>
   <i name="OFIELD_Q6_FAR">      0.00000000</i>
   <i name="OFIELD_A">      0.00000000</i>
  </separator>
  <separator name="optional k-points parameters" >
   <i type="int" name="KPOINTS_OPT_MODE">     1</i>
   <i type="logical" name="LKPOINTS_OPT"> F  </i>
  </separator>
 </parameters>
 <atominfo>
  <atoms>     152 </atoms>
  <types>       3 </types>
  <array name="atoms" >
   <dimension dim="1">ion</dimension>
   <field type="string">element</field>
   <field type="int">atomtype</field>
   <set>
    <rc><c>Ce</c><c>   1</c></rc>
    <rc><c>Ce</c><c>   1</c></rc>
    <rc><c>Ce</c><c>   1</c></rc>
    <rc><c>Ce</c><c>   1</c></rc>
    <rc><c>Ce</c><c>   1</c></rc>
    <rc><c>Ce</c><c>   1</c></rc>
    <rc><c>Ce</c><c>   1</c></rc>
    <rc><c>Ce</c><c>   1</c></rc>
    <rc><c>Ce</c><c>   1</c></rc>
    <rc><c>Ce</c><c>   1</c></rc>
    <rc><c>Ce</c><c>   1</c></rc>
    <rc><c>Ce</c><c>   1</c></rc>
    <rc><c>Ce</c><c>   1</c></rc>
    <rc><c>Ce</c><c>   1</c></rc>
    <rc><c>Ce</c><c>   1</c></rc>
    <rc><c>Ce</c><c>   1</c></rc>
    <rc><c>Ce</c><c>   1</c></rc>
    <rc><c>Ce</c><c>   1</c></rc>
    <rc><c>Ce</c><c>   1</c></rc>
    <rc><c>Ce</c><c>   1</c></rc>
    <rc><c>Ce</c><c>   1</c></rc>
    <rc><c>Ce</c><c>   1</c></rc>
    <rc><c>Ce</c><c>   1</c></rc>
    <rc><c>Ce</c><c>   1</c></rc>
    <rc><c>Ce</c><c>   1</c></rc>
    <rc><c>Ce</c><c>   1</c></rc>
    <rc><c>Ce</c><c>   1</c></rc>
    <rc><c>Ce</c><c>   1</c></rc>
    <rc><c>Ce</c><c>   1</c></rc>
    <rc><c>Ce</c><c>   1</c></rc>
    <rc><c>Ce</c><c>   1</c></rc>
    <rc><c>Ce</c><c>   1</c></rc>
    <rc><c>O </c><c>   2</c></rc>
    <rc><c>O </c><c>   2</c></rc>
    <rc><c>O </c><c>   2</c></rc>
    <rc><c>O </c><c>   2</c></rc>
    <rc><c>O </c><c>   2</c></rc>
    <rc><c>O </c><c>   2</c></rc>
    <rc><c>O </c><c>   2</c></rc>
    <rc><c>O </c><c>   2</c></rc>
    <rc><c>O </c><c>   2</c></rc>
    <rc><c>O </c><c>   2</c></rc>
    <rc><c>O </c><c>   2</c></rc>
    <rc><c>O </c><c>   2</c></rc>
    <rc><c>O </c><c>   2</c></rc>
    <rc><c>O </c><c>   2</c></rc>
    <rc><c>O </c><c>   2</c></rc>
    <rc><c>O </c><c>   2</c></rc>
    <rc><c>O </c><c>   2</c></rc>
    <rc><c>O </c><c>   2</c></rc>
    <rc><c>O </c><c>   2</c></rc>
    <rc><c>O </c><c>   2</c></rc>
    <rc><c>O </c><c>   2</c></rc>
    <rc><c>O </c><c>   2</c></rc>
    <rc><c>O </c><c>   2</c></rc>
    <rc><c>O </c><c>   2</c></rc>
    <rc><c>O </c><c>   2</c></rc>
    <rc><c>O </c><c>   2</c></rc>
    <rc><c>O </c><c>   2</c></rc>
    <rc><c>O </c><c>   2</c></rc>
    <rc><c>O </c><c>   2</c></rc>
    <rc><c>O </c><c>   2</c></rc>
    <rc><c>O </c><c>   2</c></rc>
    <rc><c>O </c><c>   2</c></rc>
    <rc><c>O </c><c>   2</c></rc>
    <rc><c>O </c><c>   2</c></rc>
    <rc><c>O </c><c>   2</c></rc>
    <rc><c>O </c><c>   2</c></rc>
    <rc><c>O </c><c>   2</c></rc>
    <rc><c>O </c><c>   2</c></rc>
    <rc><c>O </c><c>   2</c></rc>
    <rc><c>O </c><c>   2</c></rc>
    <rc><c>O </c><c>   2</c></rc>
    <rc><c>O </c><c>   2</c></rc>
    <rc><c>O </c><c>   2</c></rc>
    <rc><c>O </c><c>   2</c></rc>
    <rc><c>O </c><c>   2</c></rc>
    <rc><c>O </c><c>   2</c></rc>
    <rc><c>O </c><c>   2</c></rc>
    <rc><c>O </c><c>   2</c></rc>
    <rc><c>O </c><c>   2</c></rc>
    <rc><c>O </c><c>   2</c></rc>
    <rc><c>O </c><c>   2</c></rc>
    <rc><c>O </c><c>   2</c></rc>
    <rc><c>O </c><c>   2</c></rc>
    <rc><c>O </c><c>   2</c></rc>
    <rc><c>O </c><c>   2</c></rc>
    <rc><c>O </c><c>   2</c></rc>
    <rc><c>O </c><c>   2</c></rc>
    <rc><c>O </c><c>   2</c></rc>
    <rc><c>O </c><c>   2</c></rc>
    <rc><c>O </c><c>   2</c></rc>
    <rc><c>O </c><c>   2</c></rc>
    <rc><c>O </c><c>   2</c></rc>
    <rc><c>O </c><c>   2</c></rc>
    <rc><c>O </c><c>   2</c></rc>
    <rc><c>O </c><c>   2</c></rc>
    <rc><c>O </c><c>   2</c></rc>
    <rc><c>O </c><c>   2</c></rc>
    <rc><c>O </c><c>   2</c></rc>
    <rc><c>O </c><c>   2</c></rc>
    <rc><c>O </c><c>   2</c></rc>
    <rc><c>O </c><c>   2</c></rc>
    <rc><c>O </c><c>   2</c></rc>
    <rc><c>O </c><c>   2</c></rc>
    <rc><c>O </c><c>   2</c></rc>
    <rc><c>O </c><c>   2</c></rc>
    <rc><c>O </c><c>   2</c></rc>
    <rc><c>O </c><c>   2</c></rc>
    <rc><c>O </c><c>   2</c></rc>
    <rc><c>O </c><c>   2</c></rc>
    <rc><c>O </c><c>   2</c></rc>
    <rc><c>O </c><c>   2</c></rc>
    <rc><c>O </c><c>   2</c></rc>
    <rc><c>O </c><c>   2</c></rc>
    <rc><c>O </c><c>   2</c></rc>
    <rc><c>O </c><c>   2</c></rc>
    <rc><c>O </c><c>   2</c></rc>
    <rc><c>O </c><c>   2</c></rc>
    <rc><c>O </c><c>   2</c></rc>
    <rc><c>O </c><c>   2</c></rc>
    <rc><c>O </c><c>   2</c></rc>
    <rc><c>O </c><c>   2</c></rc>
    <rc><c>O </c><c>   2</c></rc>
    <rc><c>O </c><c>   2</c></rc>
    <rc><c>O </c><c>   2</c></rc>
    <rc><c>O </c><c>   2</c></rc>
    <rc><c>O </c><c>   2</c></rc>
    <rc><c>O </c><c>   2</c></rc>
    <rc><c>O </c><c>   2</c></rc>
    <rc><c>O </c><c>   2</c></rc>
    <rc><c>O </c><c>   2</c></rc>
    <rc><c>O </c><c>   2</c></rc>
    <rc><c>O </c><c>   2</c></rc>
    <rc><c>O </c><c>   2</c></rc>
    <rc><c>O </c><c>   2</c></rc>
    <rc><c>O </c><c>   2</c></rc>
    <rc><c>O </c><c>   2</c></rc>
    <rc><c>O </c><c>   2</c></rc>
    <rc><c>O </c><c>   2</c></rc>
    <rc><c>O </c><c>   2</c></rc>
    <rc><c>O </c><c>   2</c></rc>
    <rc><c>O </c><c>   2</c></rc>
    <rc><c>O </c><c>   2</c></rc>
    <rc><c>O </c><c>   2</c></rc>
    <rc><c>O </c><c>   2</c></rc>
    <rc><c>Ir</c><c>   3</c></rc>
    <rc><c>Ir</c><c>   3</c></rc>
    <rc><c>Ir</c><c>   3</c></rc>
    <rc><c>Ir</c><c>   3</c></rc>
    <rc><c>Ir</c><c>   3</c></rc>
    <rc><c>Ir</c><c>   3</c></rc>
   </set>
  </array>
  <array name="atomtypes" >
   <dimension dim="1">type</dimension>
   <field type="int">atomspertype</field>
   <field type="string">element</field>
   <field>mass</field>
   <field>valence</field>
   <field type="string">pseudopotential</field>
   <set>
    <rc><c>  32</c><c>Ce</c><c>    140.11500000</c><c>     12.00000000</c><c>  PAW_PBE Ce 23Dec2003                  </c></rc>
    <rc><c> 114</c><c>O </c><c>     16.00000000</c><c>      6.00000000</c><c>  PAW_PBE O 08Apr2002                   </c></rc>
    <rc><c>   6</c><c>Ir</c><c>    192.22000000</c><c>      9.00000000</c><c>  PAW_PBE Ir 06Sep2000                  </c></rc>
   </set>
  </array>
 </atominfo>
 <structure name="initialpos" >
  <crystal>
   <varray name="basis" >
    <v>      15.46430016       0.00000000       0.00000000 </v>
    <v>      -7.73215008      13.39247679       0.00000000 </v>
    <v>       0.00000000       0.00000000      21.04820061 </v>
   </varray>
   <i name="volume">   4359.19349823 </i>
   <varray name="rec_basis" >
    <v>       0.06466507       0.03733439       0.00000000 </v>
    <v>       0.00000000       0.07466879       0.00000000 </v>
    <v>       0.00000000       0.00000000       0.04751000 </v>
   </varray>
  </crystal>
  <varray name="positions" >
   <v>       0.00000000       0.00000000       0.45993000 </v>
   <v>       0.16667000       0.08333000       0.30996000 </v>
   <v>       0.25000000       0.00000000       0.45993000 </v>
   <v>       0.41667000       0.08333000       0.30996000 </v>
   <v>       0.50000000       0.00000000       0.45993000 </v>
   <v>       0.66667000       0.08333000       0.30996000 </v>
   <v>       0.75000000       0.00000000       0.45993000 </v>
   <v>       0.91667000       0.08333000       0.30996000 </v>
   <v>       0.00000000       0.25000000       0.45993000 </v>
   <v>       0.16667000       0.33333000       0.30996000 </v>
   <v>       0.25000000       0.25000000       0.45993000 </v>
   <v>       0.41667000       0.33333000       0.30996000 </v>
   <v>       0.50000000       0.25000000       0.45993000 </v>
   <v>       0.66667000       0.33333000       0.30996000 </v>
   <v>       0.75000000       0.25000000       0.45993000 </v>
   <v>       0.91667000       0.33333000       0.30996000 </v>
   <v>       0.00000000       0.50000000       0.45993000 </v>
   <v>       0.16667000       0.58333000       0.30996000 </v>
   <v>       0.25000000       0.50000000       0.45993000 </v>
   <v>       0.41667000       0.58333000       0.30996000 </v>
   <v>       0.50000000       0.50000000       0.45993000 </v>
   <v>       0.66667000       0.58333000       0.30996000 </v>
   <v>       0.75000000       0.50000000       0.45993000 </v>
   <v>       0.91667000       0.58333000       0.30996000 </v>
   <v>       0.00000000       0.75000000       0.45993000 </v>
   <v>       0.16667000       0.83333000       0.30996000 </v>
   <v>       0.25000000       0.75000000       0.45993000 </v>
   <v>       0.41667000       0.83333000       0.30996000 </v>
   <v>       0.50000000       0.75000000       0.45993000 </v>
   <v>       0.66667000       0.83333000       0.30996000 </v>
   <v>       0.75000000       0.75000000       0.45993000 </v>
   <v>       0.91667000       0.83333000       0.30996000 </v>
   <v>       0.00000000       0.00000000       0.57241000 </v>
   <v>       0.08333000       0.16667000       0.27247000 </v>
   <v>       0.16667000       0.08333000       0.42244000 </v>
   <v>       0.08333000       0.16667000       0.49742000 </v>
   <v>       0.00000000       0.00000000       0.34745000 </v>
   <v>       0.16667000       0.08333000       0.19748000 </v>
   <v>       0.25000000       0.00000000       0.57241000 </v>
   <v>       0.33333000       0.16667000       0.27247000 </v>
   <v>       0.41667000       0.08333000       0.42244000 </v>
   <v>       0.33333000       0.16667000       0.49742000 </v>
   <v>       0.25000000       0.00000000       0.34745000 </v>
   <v>       0.41667000       0.08333000       0.19748000 </v>
   <v>       0.50000000       0.00000000       0.57241000 </v>
   <v>       0.58333000       0.16667000       0.27247000 </v>
   <v>       0.66667000       0.08333000       0.42244000 </v>
   <v>       0.58333000       0.16667000       0.49742000 </v>
   <v>       0.50000000       0.00000000       0.34745000 </v>
   <v>       0.66667000       0.08333000       0.19748000 </v>
   <v>       0.75000000       0.00000000       0.57241000 </v>
   <v>       0.83333000       0.16667000       0.27247000 </v>
   <v>       0.91667000       0.08333000       0.42244000 </v>
   <v>       0.83333000       0.16667000       0.49742000 </v>
   <v>       0.75000000       0.00000000       0.34745000 </v>
   <v>       0.91667000       0.08333000       0.19748000 </v>
   <v>       0.00000000       0.25000000       0.57241000 </v>
   <v>       0.08333000       0.41667000       0.27247000 </v>
   <v>       0.16667000       0.33333000       0.42244000 </v>
   <v>       0.08333000       0.41667000       0.49742000 </v>
   <v>       0.00000000       0.25000000       0.34745000 </v>
   <v>       0.16667000       0.33333000       0.19748000 </v>
   <v>       0.25000000       0.25000000       0.57241000 </v>
   <v>       0.33333000       0.41667000       0.27247000 </v>
   <v>       0.41667000       0.33333000       0.42244000 </v>
   <v>       0.33333000       0.41667000       0.49742000 </v>
   <v>       0.25000000       0.25000000       0.34745000 </v>
   <v>       0.41667000       0.33333000       0.19748000 </v>
   <v>       0.50000000       0.25000000       0.57241000 </v>
   <v>       0.58333000       0.41667000       0.27247000 </v>
   <v>       0.66667000       0.33333000       0.42244000 </v>
   <v>       0.58333000       0.41667000       0.49742000 </v>
   <v>       0.50000000       0.25000000       0.34745000 </v>
   <v>       0.66667000       0.33333000       0.19748000 </v>
   <v>       0.75000000       0.25000000       0.57241000 </v>
   <v>       0.83333000       0.41667000       0.27247000 </v>
   <v>       0.91667000       0.33333000       0.42244000 </v>
   <v>       0.83333000       0.41667000       0.49742000 </v>
   <v>       0.75000000       0.25000000       0.34745000 </v>
   <v>       0.91667000       0.33333000       0.19748000 </v>
   <v>       0.00000000       0.50000000       0.57241000 </v>
   <v>       0.08333000       0.66667000       0.27247000 </v>
   <v>       0.16667000       0.58333000       0.42244000 </v>
   <v>       0.08333000       0.66667000       0.49742000 </v>
   <v>       0.00000000       0.50000000       0.34745000 </v>
   <v>       0.16667000       0.58333000       0.19748000 </v>
   <v>       0.25000000       0.50000000       0.57241000 </v>
   <v>       0.33333000       0.66667000       0.27247000 </v>
   <v>       0.41667000       0.58333000       0.42244000 </v>
   <v>       0.33333000       0.66667000       0.49742000 </v>
   <v>       0.25000000       0.50000000       0.34745000 </v>
   <v>       0.41667000       0.58333000       0.19748000 </v>
   <v>       0.50000000       0.50000000       0.57241000 </v>
   <v>       0.58333000       0.66667000       0.27247000 </v>
   <v>       0.66667000       0.58333000       0.42244000 </v>
   <v>       0.58333000       0.66667000       0.49742000 </v>
   <v>       0.50000000       0.50000000       0.34745000 </v>
   <v>       0.66667000       0.58333000       0.19748000 </v>
   <v>       0.75000000       0.50000000       0.57241000 </v>
   <v>       0.83333000       0.66667000       0.27247000 </v>
   <v>       0.91667000       0.58333000       0.42244000 </v>
   <v>       0.83333000       0.66667000       0.49742000 </v>
   <v>       0.75000000       0.50000000       0.34745000 </v>
   <v>       0.91667000       0.58333000       0.19748000 </v>
   <v>       0.00000000       0.75000000       0.57241000 </v>
   <v>       0.08333000       0.91667000       0.27247000 </v>
   <v>       0.16667000       0.83333000       0.42244000 </v>
   <v>       0.08333000       0.91667000       0.49742000 </v>
   <v>       0.00000000       0.75000000       0.34745000 </v>
   <v>       0.16667000       0.83333000       0.19748000 </v>
   <v>       0.25000000       0.75000000       0.57241000 </v>
   <v>       0.33333000       0.91667000       0.27247000 </v>
   <v>       0.41667000       0.83333000       0.42244000 </v>
   <v>       0.33333000       0.91667000       0.49742000 </v>
   <v>       0.25000000       0.75000000       0.34745000 </v>
   <v>       0.41667000       0.83333000       0.19748000 </v>
   <v>       0.50000000       0.75000000       0.57241000 </v>
   <v>       0.58333000       0.91667000       0.27247000 </v>
   <v>       0.66667000       0.83333000       0.42244000 </v>
   <v>       0.58333000       0.91667000       0.49742000 </v>
   <v>       0.50000000       0.75000000       0.34745000 </v>
   <v>       0.66667000       0.83333000       0.19748000 </v>
   <v>       0.75000000       0.75000000       0.57241000 </v>
   <v>       0.83333000       0.91667000       0.27247000 </v>
   <v>       0.91667000       0.83333000       0.42244000 </v>
   <v>       0.83333000       0.91667000       0.49742000 </v>
   <v>       0.75000000       0.75000000       0.34745000 </v>
   <v>       0.91667000       0.83333000       0.19748000 </v>
   <v>       0.58333000       0.42313000       0.64471000 </v>
   <v>       0.33333000       0.67313000       0.64471000 </v>
   <v>       0.83333000       0.67313000       0.64471000 </v>
   <v>       0.58333000       0.92313000       0.64471000 </v>
   <v>       0.67274000       0.33528000       0.64832000 </v>
   <v>       0.42274000       0.58528000       0.64832000 </v>
   <v>       0.92274000       0.58528000       0.64832000 </v>
   <v>       0.67274000       0.83528000       0.64832000 </v>
   <v>       0.67456000       0.33342000       0.50166000 </v>
   <v>       0.42456000       0.58342000       0.50166000 </v>
   <v>       0.92456000       0.58342000       0.50166000 </v>
   <v>       0.67456000       0.83342000       0.50166000 </v>
   <v>       0.32946000       0.17333000       0.64471000 </v>
   <v>       0.07946000       0.42333000       0.64471000 </v>
   <v>       0.41887000       0.08548000       0.64832000 </v>
   <v>       0.16887000       0.33548000       0.64832000 </v>
   <v>       0.42069000       0.08361000       0.50166000 </v>
   <v>       0.17069000       0.33361000       0.50166000 </v>
   <v>       0.62755000       0.87171000       0.57241000 </v>
   <v>       0.38290000       0.63176000       0.57241000 </v>
   <v>       0.88375000       0.62820000       0.57241000 </v>
   <v>       0.63909000       0.38824000       0.57241000 </v>
   <v>       0.12902000       0.38196000       0.57241000 </v>
   <v>       0.38522000       0.13844000       0.57241000 </v>
  </varray>
  <varray name="selective"  type="logical" >
   <v type="logical" >  T  T  T </v>
   <v type="logical" >  F  F  F </v>
   <v type="logical" >  T  T  T </v>
   <v type="logical" >  F  F  F </v>
   <v type="logical" >  T  T  T </v>
   <v type="logical" >  F  F  F </v>
   <v type="logical" >  T  T  T </v>
   <v type="logical" >  F  F  F </v>
   <v type="logical" >  T  T  T </v>
   <v type="logical" >  F  F  F </v>
   <v type="logical" >  T  T  T </v>
   <v type="logical" >  F  F  F </v>
   <v type="logical" >  T  T  T </v>
   <v type="logical" >  F  F  F </v>
   <v type="logical" >  T  T  T </v>
   <v type="logical" >  F  F  F </v>
   <v type="logical" >  T  T  T </v>
   <v type="logical" >  F  F  F </v>
   <v type="logical" >  T  T  T </v>
   <v type="logical" >  F  F  F </v>
   <v type="logical" >  T  T  T </v>
   <v type="logical" >  F  F  F </v>
   <v type="logical" >  T  T  T </v>
   <v type="logical" >  F  F  F </v>
   <v type="logical" >  T  T  T </v>
   <v type="logical" >  F  F  F </v>
   <v type="logical" >  T  T  T </v>
   <v type="logical" >  F  F  F </v>
   <v type="logical" >  T  T  T </v>
   <v type="logical" >  F  F  F </v>
   <v type="logical" >  T  T  T </v>
   <v type="logical" >  F  F  F </v>
   <v type="logical" >  T  T  T </v>
   <v type="logical" >  F  F  F </v>
   <v type="logical" >  T  T  T </v>
   <v type="logical" >  T  T  T </v>
   <v type="logical" >  T  T  T </v>
   <v type="logical" >  F  F  F </v>
   <v type="logical" >  T  T  T </v>
   <v type="logical" >  F  F  F </v>
   <v type="logical" >  T  T  T </v>
   <v type="logical" >  T  T  T </v>
   <v type="logical" >  T  T  T </v>
   <v type="logical" >  F  F  F </v>
   <v type="logical" >  T  T  T </v>
   <v type="logical" >  F  F  F </v>
   <v type="logical" >  T  T  T </v>
   <v type="logical" >  T  T  T </v>
   <v type="logical" >  T  T  T </v>
   <v type="logical" >  F  F  F </v>
   <v type="logical" >  T  T  T </v>
   <v type="logical" >  F  F  F </v>
   <v type="logical" >  T  T  T </v>
   <v type="logical" >  T  T  T </v>
   <v type="logical" >  T  T  T </v>
   <v type="logical" >  F  F  F </v>
   <v type="logical" >  T  T  T </v>
   <v type="logical" >  F  F  F </v>
   <v type="logical" >  T  T  T </v>
   <v type="logical" >  T  T  T </v>
   <v type="logical" >  T  T  T </v>
   <v type="logical" >  F  F  F </v>
   <v type="logical" >  T  T  T </v>
   <v type="logical" >  F  F  F </v>
   <v type="logical" >  T  T  T </v>
   <v type="logical" >  T  T  T </v>
   <v type="logical" >  T  T  T </v>
   <v type="logical" >  F  F  F </v>
   <v type="logical" >  T  T  T </v>
   <v type="logical" >  F  F  F </v>
   <v type="logical" >  T  T  T </v>
   <v type="logical" >  T  T  T </v>
   <v type="logical" >  T  T  T </v>
   <v type="logical" >  F  F  F </v>
   <v type="logical" >  T  T  T </v>
   <v type="logical" >  F  F  F </v>
   <v type="logical" >  T  T  T </v>
   <v type="logical" >  T  T  T </v>
   <v type="logical" >  T  T  T </v>
   <v type="logical" >  F  F  F </v>
   <v type="logical" >  T  T  T </v>
   <v type="logical" >  F  F  F </v>
   <v type="logical" >  T  T  T </v>
   <v type="logical" >  T  T  T </v>
   <v type="logical" >  T  T  T </v>
   <v type="logical" >  F  F  F </v>
   <v type="logical" >  T  T  T </v>
   <v type="logical" >  F  F  F </v>
   <v type="logical" >  T  T  T </v>
   <v type="logical" >  T  T  T </v>
   <v type="logical" >  T  T  T </v>
   <v type="logical" >  F  F  F </v>
   <v type="logical" >  T  T  T </v>
   <v type="logical" >  F  F  F </v>
   <v type="logical" >  T  T  T </v>
   <v type="logical" >  T  T  T </v>
   <v type="logical" >  T  T  T </v>
   <v type="logical" >  F  F  F </v>
   <v type="logical" >  T  T  T </v>
   <v type="logical" >  F  F  F </v>
   <v type="logical" >  T  T  T </v>
   <v type="logical" >  T  T  T </v>
   <v type="logical" >  T  T  T </v>
   <v type="logical" >  F  F  F </v>
   <v type="logical" >  T  T  T </v>
   <v type="logical" >  F  F  F </v>
   <v type="logical" >  T  T  T </v>
   <v type="logical" >  T  T  T </v>
   <v type="logical" >  T  T  T </v>
   <v type="logical" >  F  F  F </v>
   <v type="logical" >  T  T  T </v>
   <v type="logical" >  F  F  F </v>
   <v type="logical" >  T  T  T </v>
   <v type="logical" >  T  T  T </v>
   <v type="logical" >  T  T  T </v>
   <v type="logical" >  F  F  F </v>
   <v type="logical" >  T  T  T </v>
   <v type="logical" >  F  F  F </v>
   <v type="logical" >  T  T  T </v>
   <v type="logical" >  T  T  T </v>
   <v type="logical" >  T  T  T </v>
   <v type="logical" >  F  F  F </v>
   <v type="logical" >  T  T  T </v>
   <v type="logical" >  F  F  F </v>
   <v type="logical" >  T  T  T </v>
   <v type="logical" >  T  T  T </v>
   <v type="logical" >  T  T  T </v>
   <v type="logical" >  F  F  F </v>
   <v type="logical" >  T  T  T </v>
   <v type="logical" >  T  T  T </v>
   <v type="logical" >  T  T  T </v>
   <v type="logical" >  T  T  T </v>
   <v type="logical" >  T  T  T </v>
   <v type="logical" >  T  T  T </v>
   <v type="logical" >  T  T  T </v>
   <v type="logical" >  T  T  T </v>
   <v type="logical" >  T  T  T </v>
   <v type="logical" >  T  T  T </v>
   <v type="logical" >  T  T  T </v>
   <v type="logical" >  T  T  T </v>
   <v type="logical" >  T  T  T </v>
   <v type="logical" >  T  T  T </v>
   <v type="logical" >  T  T  T </v>
   <v type="logical" >  T  T  T </v>
   <v type="logical" >  T  T  T </v>
   <v type="logical" >  T  T  T </v>
   <v type="logical" >  T  T  T </v>
   <v type="logical" >  T  T  T </v>
   <v type="logical" >  T  T  T </v>
   <v type="logical" >  T  T  T </v>
   <v type="logical" >  T  T  T </v>
   <v type="logical" >  T  T  T </v>
  </varray>
  <nose>
   <v>      -3.00000000       0.00000000       0.00010000       0.00010000 </v>
  </nose>
 </structure>
 <calculation>
  <scstep>
   <time name="dav">    8.54    8.58</time>
   <time name="total">   10.06   10.10</time>
   <energy>
    <i name="alphaZ">   2319.77520036 </i>
    <i name="ewald"> 238185.74283647 </i>
    <i name="hartreedc">-316943.46828023 </i>
    <i name="XCdc">   3205.54739942 </i>
    <i name="pawpsdc">  70034.13271650 </i>
    <i name="pawaedc"> -69185.51368182 </i>
    <i name="eentropy">     -0.02568851 </i>
    <i name="bandstr">   6773.14114988 </i>
    <i name="atom">  86668.23201156 </i>
    <i name="e_fr_energy">  21057.56366364 </i>
    <i name="e_wo_entrp">  21057.58935215 </i>
    <i name="e_0_energy">  21057.57650789 </i>
   </energy>
  </scstep>
  <scstep>
   <time name="dav">    9.31    9.31</time>
   <time name="total">    9.31    9.31</time>
   <energy>
    <i name="e_fr_energy">   6201.33685757 </i>
    <i name="e_wo_entrp">   6201.52386334 </i>
    <i name="e_0_energy">   6201.43036046 </i>
   </energy>
  </scstep>
  <scstep>
   <time name="dav">    9.87    9.88</time>
   <time name="total">    9.87    9.88</time>
   <energy>
    <i name="e_fr_energy">    237.82036451 </i>
    <i name="e_wo_entrp">    237.96338659 </i>
    <i name="e_0_energy">    237.89187555 </i>
   </energy>
  </scstep>
  <scstep>
   <time name="dav">   10.29   10.30</time>
   <time name="total">   10.29   10.30</time>
   <energy>
    <i name="e_fr_energy">  -1137.29550955 </i>
    <i name="e_wo_entrp">  -1137.23618966 </i>
    <i name="e_0_energy">  -1137.26584960 </i>
   </energy>
  </scstep>
  <scstep>
   <time name="dav">   12.50   12.51</time>
   <time name="total">   13.93   13.94</time>
   <energy>
    <i name="e_fr_energy">  -1248.66201166 </i>
    <i name="e_wo_entrp">  -1248.34852906 </i>
    <i name="e_0_energy">  -1248.50527036 </i>
   </energy>
  </scstep>
  <scstep>
   <time name="dav">   12.61   12.62</time>
   <time name="total">   15.41   15.42</time>
   <energy>
    <i name="e_fr_energy">  -1672.31769767 </i>
    <i name="e_wo_entrp">  -1672.09122435 </i>
    <i name="e_0_energy">  -1672.20446101 </i>
   </energy>
  </scstep>
  <scstep>
   <time name="dav">   12.28   12.28</time>
   <time name="total">   15.07   15.08</time>
   <energy>
    <i name="e_fr_energy">  -1920.95581131 </i>
    <i name="e_wo_entrp">  -1920.76423242 </i>
    <i name="e_0_energy">  -1920.86002186 </i>
   </energy>
  </scstep>
  <scstep>
   <time name="dav">   12.50   12.50</time>
   <time name="total">   15.29   15.30</time>
   <energy>
    <i name="e_fr_energy">  -1781.08616258 </i>
    <i name="e_wo_entrp">  -1780.84879588 </i>
    <i name="e_0_energy">  -1780.96747923 </i>
   </energy>
  </scstep>
  <scstep>
   <time name="dav">   12.34   12.35</time>
   <time name="total">   15.17   15.18</time>
   <energy>
    <i name="e_fr_energy">  -1770.26784566 </i>
    <i name="e_wo_entrp">  -1770.14135475 </i>
    <i name="e_0_energy">  -1770.20460020 </i>
   </energy>
  </scstep>
  <scstep>
   <time name="dav">   12.43   12.44</time>
   <time name="total">   15.24   15.25</time>
   <energy>
    <i name="e_fr_energy">  -1698.78138790 </i>
    <i name="e_wo_entrp">  -1698.63683409 </i>
    <i name="e_0_energy">  -1698.70911099 </i>
   </energy>
  </scstep>
  <scstep>
   <time name="dav">   12.27   12.28</time>
   <time name="total">   15.05   15.06</time>
   <energy>
    <i name="e_fr_energy">  -1737.14749158 </i>
    <i name="e_wo_entrp">  -1736.98660908 </i>
    <i name="e_0_energy">  -1737.06705033 </i>
   </energy>
  </scstep>
  <scstep>
   <time name="dav">   11.86   11.87</time>
   <time name="total">   14.69   14.70</time>
   <energy>
    <i name="e_fr_energy">  -1592.63160473 </i>
    <i name="e_wo_entrp">  -1592.43708044 </i>
    <i name="e_0_energy">  -1592.53434258 </i>
   </energy>
  </scstep>
  <scstep>
   <time name="dav">   11.79   11.79</time>
   <time name="total">   14.60   14.60</time>
   <energy>
    <i name="e_fr_energy">  -1602.74767507 </i>
    <i name="e_wo_entrp">  -1602.56050303 </i>
    <i name="e_0_energy">  -1602.65408905 </i>
   </energy>
  </scstep>
  <scstep>
   <time name="dav">   11.58   11.59</time>
   <time name="total">   14.41   14.42</time>
   <energy>
    <i name="e_fr_energy">  -1173.77774257 </i>
    <i name="e_wo_entrp">  -1173.57263747 </i>
    <i name="e_0_energy">  -1173.67519002 </i>
   </energy>
  </scstep>
  <scstep>
   <time name="dav">   11.66   11.66</time>
   <time name="total">   14.50   14.51</time>
   <energy>
    <i name="e_fr_energy">  -1236.46672755 </i>
    <i name="e_wo_entrp">  -1236.29377682 </i>
    <i name="e_0_energy">  -1236.38025219 </i>
   </energy>
  </scstep>
  <scstep>
   <time name="dav">   11.85   11.86</time>
   <time name="total">   14.70   14.71</time>
   <energy>
    <i name="e_fr_energy">  -1093.84819435 </i>
    <i name="e_wo_entrp">  -1093.73816805 </i>
    <i name="e_0_energy">  -1093.79318120 </i>
   </energy>
  </scstep>
  <scstep>
   <time name="dav">   11.86   11.87</time>
   <time name="total">   14.70   14.71</time>
   <energy>
    <i name="e_fr_energy">  -1043.99931711 </i>
    <i name="e_wo_entrp">  -1043.90676602 </i>
    <i name="e_0_energy">  -1043.95304156 </i>
   </energy>
  </scstep>
  <scstep>
   <time name="dav">   11.18   11.19</time>
   <time name="total">   14.03   14.03</time>
   <energy>
    <i name="e_fr_energy">  -1054.75344175 </i>
    <i name="e_wo_entrp">  -1054.65974534 </i>
    <i name="e_0_energy">  -1054.70659355 </i>
   </energy>
  </scstep>
  <scstep>
   <time name="dav">   11.37   11.37</time>
   <time name="total">   14.21   14.22</time>
   <energy>
    <i name="e_fr_energy">  -1015.08161774 </i>
    <i name="e_wo_entrp">  -1014.91208462 </i>
    <i name="e_0_energy">  -1014.99685118 </i>
   </energy>
  </scstep>
  <scstep>
   <time name="dav">   11.63   11.64</time>
   <time name="total">   14.44   14.45</time>
   <energy>
    <i name="e_fr_energy">  -1012.68511421 </i>
    <i name="e_wo_entrp">  -1012.58271496 </i>
    <i name="e_0_energy">  -1012.63391458 </i>
   </energy>
  </scstep>
  <scstep>
   <time name="dav">   11.05   11.05</time>
   <time name="total">   13.88   13.88</time>
   <energy>
    <i name="e_fr_energy">   -997.39493866 </i>
    <i name="e_wo_entrp">   -997.22326803 </i>
    <i name="e_0_energy">   -997.30910335 </i>
   </energy>
  </scstep>
  <scstep>
   <time name="dav">   12.42   12.42</time>
   <time name="total">   15.29   15.30</time>
   <energy>
    <i name="e_fr_energy">   -993.01526982 </i>
    <i name="e_wo_entrp">   -992.87795547 </i>
    <i name="e_0_energy">   -992.94661264 </i>
   </energy>
  </scstep>
  <scstep>
   <time name="dav">   11.27   11.27</time>
   <time name="total">   14.08   14.09</time>
   <energy>
    <i name="e_fr_energy">   -984.06445136 </i>
    <i name="e_wo_entrp">   -983.95574009 </i>
    <i name="e_0_energy">   -984.01009572 </i>
   </energy>
  </scstep>
  <scstep>
   <time name="dav">   12.13   12.13</time>
   <time name="total">   14.90   14.90</time>
   <energy>
    <i name="e_fr_energy">   -979.35126028 </i>
    <i name="e_wo_entrp">   -979.22730384 </i>
    <i name="e_0_energy">   -979.28928206 </i>
   </energy>
  </scstep>
  <scstep>
   <time name="dav">   10.88   10.89</time>
   <time name="total">   13.67   13.68</time>
   <energy>
    <i name="e_fr_energy">   -970.52327188 </i>
    <i name="e_wo_entrp">   -970.42195718 </i>
    <i name="e_0_energy">   -970.47261453 </i>
   </energy>
  </scstep>
  <scstep>
   <time name="dav">   12.80   12.81</time>
   <time name="total">   15.61   15.62</time>
   <energy>
    <i name="e_fr_energy">   -968.54559155 </i>
    <i name="e_wo_entrp">   -968.46534289 </i>
    <i name="e_0_energy">   -968.50546722 </i>
   </energy>
  </scstep>
  <scstep>
   <time name="dav">   12.54   12.54</time>
   <time name="total">   15.32   15.33</time>
   <energy>
    <i name="e_fr_energy">   -962.43228967 </i>
    <i name="e_wo_entrp">   -962.31829654 </i>
    <i name="e_0_energy">   -962.37529311 </i>
   </energy>
  </scstep>
  <scstep>
   <time name="dav">   12.63   12.64</time>
   <time name="total">   15.43   15.44</time>
   <energy>
    <i name="e_fr_energy">   -957.72967154 </i>
    <i name="e_wo_entrp">   -957.59886816 </i>
    <i name="e_0_energy">   -957.66426985 </i>
   </energy>
  </scstep>
  <scstep>
   <time name="dav">   13.02   13.03</time>
   <time name="total">   15.83   15.84</time>
   <energy>
    <i name="e_fr_energy">   -954.92917915 </i>
    <i name="e_wo_entrp">   -954.81831394 </i>
    <i name="e_0_energy">   -954.87374655 </i>
   </energy>
  </scstep>
  <scstep>
   <time name="dav">   12.90   12.90</time>
   <time name="total">   15.68   15.69</time>
   <energy>
    <i name="e_fr_energy">   -954.48580368 </i>
    <i name="e_wo_entrp">   -954.38518182 </i>
    <i name="e_0_energy">   -954.43549275 </i>
   </energy>
  </scstep>
  <scstep>
   <time name="dav">   12.22   12.23</time>
   <time name="total">   15.04   15.04</time>
   <energy>
    <i name="e_fr_energy">   -956.40345244 </i>
    <i name="e_wo_entrp">   -956.30573509 </i>
    <i name="e_0_energy">   -956.35459376 </i>
   </energy>
  </scstep>
  <scstep>
   <time name="dav">   12.40   12.41</time>
   <time name="total">   15.20   15.21</time>
   <energy>
    <i name="e_fr_energy">   -952.71075265 </i>
    <i name="e_wo_entrp">   -952.57751746 </i>
    <i name="e_0_energy">   -952.64413506 </i>
   </energy>
  </scstep>
  <scstep>
   <time name="dav">   12.31   12.31</time>
   <time name="total">   15.11   15.12</time>
   <energy>
    <i name="e_fr_energy">   -958.61076485 </i>
    <i name="e_wo_entrp">   -958.52707747 </i>
    <i name="e_0_energy">   -958.56892116 </i>
   </energy>
  </scstep>
  <scstep>
   <time name="dav">   13.50   13.51</time>
   <time name="total">   16.30   16.31</time>
   <energy>
    <i name="e_fr_energy">   -956.01142698 </i>
    <i name="e_wo_entrp">   -955.91868243 </i>
    <i name="e_0_energy">   -955.96505471 </i>
   </energy>
  </scstep>
  <scstep>
   <time name="dav">   12.69   12.69</time>
   <time name="total">   15.50   15.51</time>
   <energy>
    <i name="e_fr_energy">   -957.91992150 </i>
    <i name="e_wo_entrp">   -957.80495955 </i>
    <i name="e_0_energy">   -957.86244053 </i>
   </energy>
  </scstep>
  <scstep>
   <time name="dav">   11.67   11.68</time>
   <time name="total">   14.49   14.49</time>
   <energy>
    <i name="e_fr_energy">   -958.82861749 </i>
    <i name="e_wo_entrp">   -958.74121770 </i>
    <i name="e_0_energy">   -958.78491759 </i>
   </energy>
  </scstep>
  <scstep>
   <time name="dav">   12.86   12.87</time>
   <time name="total">   15.63   19.35</time>
   <energy>
    <i name="e_fr_energy">   -959.50883537 </i>
    <i name="e_wo_entrp">   -959.38603932 </i>
    <i name="e_0_energy">   -959.44743735 </i>
   </energy>
  </scstep>
  <scstep>
   <time name="dav">   11.90   11.91</time>
   <time name="total">   14.68   14.69</time>
   <energy>
    <i name="e_fr_energy">   -962.88992747 </i>
    <i name="e_wo_entrp">   -962.77298827 </i>
    <i name="e_0_energy">   -962.83145787 </i>
   </energy>
  </scstep>
  <scstep>
   <time name="dav">   11.88   11.89</time>
   <time name="total">   14.66   14.67</time>
   <energy>
    <i name="e_fr_energy">   -962.70684859 </i>
    <i name="e_wo_entrp">   -962.58131199 </i>
    <i name="e_0_energy">   -962.64408029 </i>
   </energy>
  </scstep>
  <scstep>
   <time name="dav">   12.67   12.68</time>
   <time name="total">   15.50   15.51</time>
   <energy>
    <i name="e_fr_energy">   -965.23780300 </i>
    <i name="e_wo_entrp">   -965.10720023 </i>
    <i name="e_0_energy">   -965.17250162 </i>
   </energy>
  </scstep>
  <scstep>
   <time name="dav">   12.69   12.70</time>
   <time name="total">   15.52   15.53</time>
   <energy>
    <i name="e_fr_energy">   -964.59189992 </i>
    <i name="e_wo_entrp">   -964.47651482 </i>
    <i name="e_0_energy">   -964.53420737 </i>
   </energy>
  </scstep>
  <scstep>
   <time name="dav">   12.20   12.20</time>
   <time name="total">   15.00   15.00</time>
   <energy>
    <i name="e_fr_energy">   -966.40433200 </i>
    <i name="e_wo_entrp">   -966.27077895 </i>
    <i name="e_0_energy">   -966.33755547 </i>
   </energy>
  </scstep>
  <scstep>
   <time name="dav">   12.90   12.90</time>
   <time name="total">   15.70   15.71</time>
   <energy>
    <i name="e_fr_energy">   -966.69983879 </i>
    <i name="e_wo_entrp">   -966.57121562 </i>
    <i name="e_0_energy">   -966.63552721 </i>
   </energy>
  </scstep>
  <scstep>
   <time name="dav">   12.38   12.39</time>
   <time name="total">   15.23   15.24</time>
   <energy>
    <i name="e_fr_energy">   -966.19384318 </i>
    <i name="e_wo_entrp">   -966.06830563 </i>
    <i name="e_0_energy">   -966.13107440 </i>
   </energy>
  </scstep>
  <scstep>
   <time name="dav">   12.61   12.62</time>
   <time name="total">   15.44   15.45</time>
   <energy>
    <i name="e_fr_energy">   -967.41506231 </i>
    <i name="e_wo_entrp">   -967.29980548 </i>
    <i name="e_0_energy">   -967.35743389 </i>
   </energy>
  </scstep>
  <scstep>
   <time name="dav">   11.48   11.49</time>
   <time name="total">   14.38   14.39</time>
   <energy>
    <i name="e_fr_energy">   -968.41823047 </i>
    <i name="e_wo_entrp">   -968.29971863 </i>
    <i name="e_0_energy">   -968.35897455 </i>
   </energy>
  </scstep>
  <scstep>
   <time name="dav">   12.45   12.46</time>
   <time name="total">   15.31   15.32</time>
   <energy>
    <i name="e_fr_energy">   -968.58247934 </i>
    <i name="e_wo_entrp">   -968.46395603 </i>
    <i name="e_0_energy">   -968.52321768 </i>
   </energy>
  </scstep>
  <scstep>
   <time name="dav">   12.96   12.96</time>
   <time name="total">   15.79   15.79</time>
   <energy>
    <i name="e_fr_energy">   -968.63599227 </i>
    <i name="e_wo_entrp">   -968.51900452 </i>
    <i name="e_0_energy">   -968.57749840 </i>
   </energy>
  </scstep>
  <scstep>
   <time name="dav">   13.06   13.07</time>
   <time name="total">   15.86   15.87</time>
   <energy>
    <i name="e_fr_energy">   -968.84344747 </i>
    <i name="e_wo_entrp">   -968.72132812 </i>
    <i name="e_0_energy">   -968.78238780 </i>
   </energy>
  </scstep>
  <scstep>
   <time name="dav">   12.45   12.46</time>
   <time name="total">   15.21   15.22</time>
   <energy>
    <i name="e_fr_energy">   -969.60224050 </i>
    <i name="e_wo_entrp">   -969.47733244 </i>
    <i name="e_0_energy">   -969.53978647 </i>
   </energy>
  </scstep>
  <scstep>
   <time name="dav">   11.35   11.36</time>
   <time name="total">   14.13   14.13</time>
   <energy>
    <i name="e_fr_energy">   -964.20702054 </i>
    <i name="e_wo_entrp">   -964.07780779 </i>
    <i name="e_0_energy">   -964.14241416 </i>
   </energy>
  </scstep>
  <scstep>
   <time name="dav">   11.48   11.49</time>
   <time name="total">   14.25   14.26</time>
   <energy>
    <i name="e_fr_energy">   -967.09508662 </i>
    <i name="e_wo_entrp">   -967.01379471 </i>
    <i name="e_0_energy">   -967.05444067 </i>
   </energy>
  </scstep>
  <scstep>
   <time name="dav">   11.79   11.80</time>
   <time name="total">   14.55   14.56</time>
   <energy>
    <i name="e_fr_energy">   -972.28352773 </i>
    <i name="e_wo_entrp">   -972.21636927 </i>
    <i name="e_0_energy">   -972.24994850 </i>
   </energy>
  </scstep>
  <scstep>
   <time name="dav">   11.87   11.87</time>
   <time name="total">   14.66   14.67</time>
   <energy>
    <i name="e_fr_energy">   -969.21658053 </i>
    <i name="e_wo_entrp">   -969.12318709 </i>
    <i name="e_0_energy">   -969.16988381 </i>
   </energy>
  </scstep>
  <scstep>
   <time name="dav">   12.69   12.70</time>
   <time name="total">   15.52   15.53</time>
   <energy>
    <i name="e_fr_energy">   -966.06876719 </i>
    <i name="e_wo_entrp">   -966.00889997 </i>
    <i name="e_0_energy">   -966.03883358 </i>
   </energy>
  </scstep>
  <scstep>
   <time name="dav">   12.10   12.11</time>
   <time name="total">   14.89   14.90</time>
   <energy>
    <i name="e_fr_energy">   -960.06921246 </i>
    <i name="e_wo_entrp">   -959.99374558 </i>
    <i name="e_0_energy">   -960.03147902 </i>
   </energy>
  </scstep>
  <scstep>
   <time name="dav">   12.78   12.79</time>
   <time name="total">   15.55   15.56</time>
   <energy>
    <i name="e_fr_energy">   -952.46151209 </i>
    <i name="e_wo_entrp">   -952.38319280 </i>
    <i name="e_0_energy">   -952.42235244 </i>
   </energy>
  </scstep>
  <scstep>
   <time name="dav">   11.70   11.70</time>
   <time name="total">   14.50   14.51</time>
   <energy>
    <i name="e_fr_energy">   -953.46549947 </i>
    <i name="e_wo_entrp">   -953.41110619 </i>
    <i name="e_0_energy">   -953.43830283 </i>
   </energy>
  </scstep>
  <scstep>
   <time name="dav">   13.26   13.27</time>
   <time name="total">   16.06   16.06</time>
   <energy>
    <i name="e_fr_energy">   -950.39628052 </i>
    <i name="e_wo_entrp">   -950.32050678 </i>
    <i name="e_0_energy">   -950.35839365 </i>
   </energy>
  </scstep>
  <scstep>
   <time name="dav">   12.96   12.97</time>
   <time name="total">   15.72   15.73</time>
   <energy>
    <i name="e_fr_energy">   -948.93470437 </i>
    <i name="e_wo_entrp">   -948.89014333 </i>
    <i name="e_0_energy">   -948.91242385 </i>
   </energy>
  </scstep>
  <scstep>
   <time name="dav">   12.79   12.80</time>
   <time name="total">   15.54   15.55</time>
   <energy>
    <i name="e_fr_energy">   -950.08522526 </i>
    <i name="e_wo_entrp">   -950.02885687 </i>
    <i name="e_0_energy">   -950.05704106 </i>
   </energy>
  </scstep>
  <scstep>
   <time name="dav">   11.98   11.98</time>
   <time name="total">   14.72   14.73</time>
   <energy>
    <i name="e_fr_energy">   -951.37146565 </i>
    <i name="e_wo_entrp">   -951.32580003 </i>
    <i name="e_0_energy">   -951.34863284 </i>
   </energy>
  </scstep>
  <scstep>
   <time name="dav">   11.52   11.52</time>
   <time name="total">   14.31   14.31</time>
   <energy>
    <i name="e_fr_energy">   -950.50365640 </i>
    <i name="e_wo_entrp">   -950.45533304 </i>
    <i name="e_0_energy">   -950.47949472 </i>
   </energy>
  </scstep>
  <scstep>
   <time name="dav">   11.99   11.99</time>
   <time name="total">   14.79   14.80</time>
   <energy>
    <i name="e_fr_energy">   -949.47447707 </i>
    <i name="e_wo_entrp">   -949.43104191 </i>
    <i name="e_0_energy">   -949.45275949 </i>
   </energy>
  </scstep>
  <scstep>
   <time name="dav">   12.38   12.38</time>
   <time name="total">   15.23   15.24</time>
   <energy>
    <i name="e_fr_energy">   -949.28676718 </i>
    <i name="e_wo_entrp">   -949.24187497 </i>
    <i name="e_0_energy">   -949.26432108 </i>
   </energy>
  </scstep>
  <scstep>
   <time name="dav">   12.57   12.58</time>
   <time name="total">   15.37   15.38</time>
   <energy>
    <i name="e_fr_energy">   -948.31892082 </i>
    <i name="e_wo_entrp">   -948.28868299 </i>
    <i name="e_0_energy">   -948.30380191 </i>
   </energy>
  </scstep>
  <scstep>
   <time name="dav">   11.30   11.30</time>
   <time name="total">   14.07   14.08</time>
   <energy>
    <i name="e_fr_energy">   -946.51281706 </i>
    <i name="e_wo_entrp">   -946.48460427 </i>
    <i name="e_0_energy">   -946.49871067 </i>
   </energy>
  </scstep>
  <scstep>
   <time name="dav">   12.09   12.09</time>
   <time name="total">   14.89   14.90</time>
   <energy>
    <i name="e_fr_energy">   -946.50900240 </i>
    <i name="e_wo_entrp">   -946.46629151 </i>
    <i name="e_0_energy">   -946.48764695 </i>
   </energy>
  </scstep>
  <scstep>
   <time name="dav">   11.89   11.90</time>
   <time name="total">   14.73   14.74</time>
   <energy>
    <i name="e_fr_energy">   -944.16314014 </i>
    <i name="e_wo_entrp">   -944.12508388 </i>
    <i name="e_0_energy">   -944.14411201 </i>
   </energy>
  </scstep>
  <scstep>
   <time name="dav">   12.47   12.48</time>
   <time name="total">   15.24   15.25</time>
   <energy>
    <i name="e_fr_energy">   -943.72728308 </i>
    <i name="e_wo_entrp">   -943.69101474 </i>
    <i name="e_0_energy">   -943.70914891 </i>
   </energy>
  </scstep>
  <scstep>
   <time name="dav">   12.19   12.19</time>
   <time name="total">   15.06   15.07</time>
   <energy>
    <i name="e_fr_energy">   -944.85587892 </i>
    <i name="e_wo_entrp">   -944.81745073 </i>
    <i name="e_0_energy">   -944.83666483 </i>
   </energy>
  </scstep>
  <scstep>
   <time name="dav">   12.09   12.10</time>
   <time name="total">   14.87   14.87</time>
   <energy>
    <i name="e_fr_energy">   -944.08799767 </i>
    <i name="e_wo_entrp">   -944.04242549 </i>
    <i name="e_0_energy">   -944.06521158 </i>
   </energy>
  </scstep>
  <scstep>
   <time name="dav">   11.61   11.62</time>
   <time name="total">   14.41   14.42</time>
   <energy>
    <i name="e_fr_energy">   -943.45476759 </i>
    <i name="e_wo_entrp">   -943.40542519 </i>
    <i name="e_0_energy">   -943.43009639 </i>
   </energy>
  </scstep>
  <scstep>
   <time name="dav">   11.70   11.70</time>
   <time name="total">   14.49   14.50</time>
   <energy>
    <i name="e_fr_energy">   -943.55928297 </i>
    <i name="e_wo_entrp">   -943.51232833 </i>
    <i name="e_0_energy">   -943.53580565 </i>
   </energy>
  </scstep>
[...]
    <v>       0.33333000       0.66667000       0.27247000 </v>
    <v>       0.41506879       0.58461983       0.42295468 </v>
    <v>       0.32761484       0.67146189       0.49482409 </v>
    <v>       0.25129613       0.49998691       0.34840121 </v>
    <v>       0.41667000       0.58333000       0.19748000 </v>
    <v>       0.49361905       0.49806847       0.59039573 </v>
    <v>       0.58333000       0.66667000       0.27247000 </v>
    <v>       0.67689527       0.58550904       0.42806854 </v>
    <v>       0.58883562       0.66708079       0.49132539 </v>
    <v>       0.50097553       0.49834082       0.35429049 </v>
    <v>       0.66667000       0.58333000       0.19748000 </v>
    <v>       0.72817519       0.50615892       0.58474678 </v>
    <v>       0.83333000       0.66667000       0.27247000 </v>
    <v>       0.90879386       0.58742442       0.42742155 </v>
    <v>       0.83914697       0.67067896       0.52841250 </v>
    <v>       0.74894670       0.49881942       0.34889440 </v>
    <v>       0.91667000       0.58333000       0.19748000 </v>
    <v>       0.88748288       0.78803061       0.62566056 </v>
    <v>       0.08333000       0.91667000       0.27247000 </v>
    <v>       0.16801086       0.83530125       0.41705512 </v>
    <v>       0.08644384       0.92201893       0.49377316 </v>
    <v>       0.99906335       0.75014290       0.35005874 </v>
    <v>       0.16667000       0.83333000       0.19748000 </v>
    <v>       0.13723855       0.78855053       0.53408887 </v>
    <v>       0.33333000       0.91667000       0.27247000 </v>
    <v>       0.42299947       0.83768718       0.42459803 </v>
    <v>       0.33428168       0.92082616       0.49539721 </v>
    <v>       0.25073693       0.74725367       0.35263308 </v>
    <v>       0.41667000       0.83333000       0.19748000 </v>
    <v>       0.49029004       0.76866749       0.57993129 </v>
    <v>       0.58333000       0.91667000       0.27247000 </v>
    <v>       0.66466375       0.83934527       0.42704751 </v>
    <v>       0.57674159       0.92394444       0.51093037 </v>
    <v>       0.50157296       0.74933738       0.34924054 </v>
    <v>       0.66667000       0.83333000       0.19748000 </v>
    <v>       0.71438643       0.82066647       0.60454261 </v>
    <v>       0.83333000       0.91667000       0.27247000 </v>
    <v>       0.90889830       0.82194074       0.42764465 </v>
    <v>       0.83687944       0.92111621       0.49525831 </v>
    <v>       0.74686731       0.75029034       0.35073572 </v>
    <v>       0.91667000       0.83333000       0.19748000 </v>
    <v>       0.52849379       0.46455049       0.63249639 </v>
    <v>       0.29518877       0.72599680       0.59915428 </v>
    <v>       0.68858350       0.64958505       0.62742613 </v>
    <v>       0.45573280       0.90587451       0.62047013 </v>
    <v>       0.61318673       0.38148150       0.68962202 </v>
    <v>       0.36335040       0.62931988       0.67549297 </v>
    <v>       0.83573412       0.61237705       0.68374056 </v>
    <v>       0.59547878       0.87199429       0.68383858 </v>
    <v>       0.69560356       0.30512407       0.61149927 </v>
    <v>       0.41682500       0.59859087       0.55308055 </v>
    <v>       0.92194693       0.52644174       0.61326165 </v>
    <v>       0.68012980       0.86334448       0.57041415 </v>
    <v>       0.34448031       0.30267832       0.62820871 </v>
    <v>       0.09041116       0.54361119       0.62038283 </v>
    <v>       0.38855380       0.15803494       0.68213530 </v>
    <v>       0.12868693       0.39631151       0.67853781 </v>
    <v>       0.48091211       0.07651036       0.61435008 </v>
    <v>       0.12585765       0.31533586       0.57217887 </v>
    <v>       0.56833402       0.90631098       0.61070462 </v>
    <v>       0.34665795       0.64670904       0.59454827 </v>
    <v>       0.80491063       0.65748994       0.61728021 </v>
    <v>       0.60329142       0.39391975       0.60666448 </v>
    <v>       0.08416016       0.42798751       0.61201540 </v>
    <v>       0.33999519       0.18879787       0.61730578 </v>
   </varray>
  </structure>
  <varray name="forces" >
   <v>      -0.04294457       0.13283660       0.15483106 </v>
   <v>       0.10099717       0.12451370      -0.19030829 </v>
   <v>       0.10705606      -0.15044470       0.07626393 </v>
   <v>      -0.19509504       0.30611694      -0.30080369 </v>
   <v>      -0.02737943      -0.04272683      -0.01792262 </v>
   <v>       0.00410078       0.01783471      -0.27915869 </v>
   <v>       0.05648420       0.05207564      -0.03848159 </v>
   <v>      -0.03825883      -0.04101302      -0.29182561 </v>
   <v>       0.04325768      -0.04466685      -0.12719212 </v>
   <v>      -0.30448508       0.11519419      -0.33533279 </v>
   <v>      -0.02728278       0.10328828      -0.00637405 </v>
   <v>       0.26198535      -0.06320550       0.01213706 </v>
   <v>      -0.03373350       0.04153040       0.07446041 </v>
   <v>      -0.20632594       0.08232728      -0.20828304 </v>
   <v>       0.04663793      -0.03831806       0.08395074 </v>
   <v>      -0.00230774      -0.07931362      -0.34215698 </v>
   <v>       0.02468933       0.08942076      -0.00237997 </v>
   <v>       0.11085856      -0.02811390       0.16774626 </v>
   <v>       0.07195019       0.04795003      -0.00627720 </v>
   <v>      -0.04229121       0.06274342      -0.15988032 </v>
   <v>       0.04190285      -0.00609141      -0.08663679 </v>
   <v>       0.19530433      -0.25382169      -0.01010802 </v>
   <v>      -0.06631068      -0.07968312       0.02990732 </v>
   <v>      -0.38042842       0.16827461      -0.09310288 </v>
   <v>       0.06199824      -0.01401115      -0.08079844 </v>
   <v>      -0.03538668      -0.10839773      -0.64126720 </v>
   <v>      -0.03095360       0.08879616       0.13711931 </v>
   <v>       0.01940756      -0.16369055       0.18674108 </v>
   <v>      -0.06833095      -0.07494671       0.03396505 </v>
   <v>      -0.22038230       0.20209885      -0.29121407 </v>
   <v>      -0.11317455      -0.02078559       0.01139193 </v>
   <v>       0.14193747      -0.20102588      -0.04013064 </v>
   <v>      -0.06385564       0.00224541      -0.03539474 </v>
   <v>       0.10161010      -0.05177530       0.14386969 </v>
   <v>      -0.08325580       0.00582904      -0.06050980 </v>
   <v>       0.00429266      -0.03249752       0.04241145 </v>
   <v>       0.00525855       0.02106952       0.03346166 </v>
   <v>       0.00197497       0.01351151       0.08846638 </v>
   <v>      -0.05748378       0.03760043      -0.12173962 </v>
   <v>      -0.16577061       0.16764577       0.09259282 </v>
   <v>       0.01455902      -0.02871955      -0.03343612 </v>
   <v>       0.03870585       0.11420411       0.04854516 </v>
   <v>       0.06673702      -0.17706778       0.05822713 </v>
   <v>       0.03836602      -0.01521963       0.03620212 </v>
   <v>      -0.01507858      -0.13289030       0.11423330 </v>
   <v>       0.06832773       0.01400945       0.04420246 </v>
   <v>       0.00666872      -0.14669730       0.04234821 </v>
   <v>       0.01551507       0.00062673       0.01348569 </v>
   <v>      -0.06099772      -0.02231274       0.05190905 </v>
   <v>      -0.04231854      -0.00965700       0.03501228 </v>
   <v>      -0.20139761      -0.16370473       0.04722488 </v>
   <v>      -0.13344775       0.10217101       0.18526882 </v>
   <v>       0.06154317      -0.00635498       0.09140788 </v>
   <v>      -0.03299135       0.02333203      -0.03224441 </v>
   <v>      -0.00738671      -0.03302234       0.06220826 </v>
   <v>       0.04382410      -0.04602226      -0.11784888 </v>
   <v>      -0.02184873       0.06906121      -0.01821615 </v>
   <v>      -0.11986024       0.01642553       0.13107335 </v>
   <v>      -0.01556701       0.03180693       0.07573385 </v>
   <v>       0.06707333       0.06420542      -0.06881652 </v>
   <v>      -0.03881954       0.01389058       0.00348248 </v>
   <v>       0.00367998      -0.03020454       0.02225078 </v>
   <v>      -0.14556167      -0.06743209       0.06196436 </v>
   <v>       0.24036259      -0.00705304       0.07063894 </v>
   <v>       0.02752194       0.01358936       0.03634884 </v>
   <v>      -0.03123304       0.08590104      -0.09645682 </v>
   <v>       0.02193460       0.02341232      -0.00852416 </v>
   <v>      -0.00669340       0.03222740       0.15918806 </v>
   <v>       0.04077580       0.05667630      -0.04360414 </v>
   <v>      -0.22487528       0.09688135       0.09775417 </v>
   <v>       0.07003266       0.01172108       0.03041929 </v>
   <v>       0.09057769       0.00914114       0.10130573 </v>
   <v>       0.02881163      -0.01023622      -0.02319703 </v>
   <v>       0.03718190      -0.04544990      -0.09374169 </v>
   <v>       0.01527320      -0.02150717      -0.15204950 </v>
   <v>       0.03223772      -0.11318851       0.04295702 </v>
   <v>       0.06159985       0.02552880       0.05178197 </v>
   <v>       0.02759220       0.02676691       0.02361064 </v>
   <v>      -0.00250038       0.07122051      -0.04560146 </v>
   <v>      -0.01124963       0.04238886       0.04537108 </v>
   <v>       0.10925074       0.14697176       0.07552339 </v>
   <v>       0.06866180      -0.04655796       0.07031129 </v>
   <v>       0.00862221       0.04653731      -0.00510332 </v>
   <v>       0.04857512       0.13218428      -0.07048729 </v>
   <v>      -0.01719222       0.07087923       0.07176307 </v>
   <v>       0.02425458       0.02497184       0.05267553 </v>
   <v>      -0.06371281      -0.09661951      -0.02840546 </v>
   <v>      -0.00444673       0.06016359      -0.03022258 </v>
   <v>       0.00979694      -0.04811970       0.02981134 </v>
   <v>       0.18925242      -0.11547973       0.04445721 </v>
   <v>      -0.00212943      -0.01861601       0.06060830 </v>
   <v>      -0.03033655       0.02020589       0.02766355 </v>
   <v>       0.05479392      -0.04072195       0.09571924 </v>
   <v>       0.10900234      -0.20218002       0.07253234 </v>
   <v>       0.07890148      -0.06302255       0.09409482 </v>
   <v>      -0.00604167       0.05015982      -0.09713380 </v>
   <v>       0.00224730      -0.02589498      -0.00658435 </v>
   <v>      -0.03064888      -0.00710883       0.13289015 </v>
   <v>      -0.06411688      -0.02321272      -0.05036634 </v>
   <v>      -0.16644779       0.07348703       0.09800566 </v>
   <v>       0.13933793       0.02497487       0.10625342 </v>
   <v>       0.06431231      -0.02607850      -0.09162076 </v>
   <v>       0.05545052      -0.03652378       0.02051784 </v>
   <v>       0.02983814      -0.01668453       0.03174687 </v>
   <v>      -0.04483095      -0.07308266      -0.14471851 </v>
   <v>      -0.07300576       0.03425903      -0.00612760 </v>
   <v>      -0.09449013      -0.02035193       0.09601023 </v>
   <v>      -0.08837107      -0.09451432      -0.02448433 </v>
   <v>       0.10224977       0.05379979       0.02551991 </v>
   <v>      -0.02329713       0.01440866      -0.07071300 </v>
   <v>       0.07811510      -0.31793444       0.18193723 </v>
   <v>       0.08294233      -0.06938374       0.10753439 </v>
   <v>       0.05832787      -0.03127303       0.00403237 </v>
   <v>       0.06302694       0.04664182      -0.06980389 </v>
   <v>      -0.06582275       0.00244189      -0.00989577 </v>
   <v>      -0.00661153      -0.03686534       0.06575194 </v>
   <v>      -0.08344140      -0.14961295      -0.01196049 </v>
   <v>      -0.13810058       0.05181109       0.12386426 </v>
   <v>       0.04568940       0.05536133      -0.03892045 </v>
   <v>       0.06891366      -0.10557850       0.12085856 </v>
   <v>      -0.10687659       0.05700759       0.07621468 </v>
   <v>       0.02844774       0.00644030       0.03345250 </v>
   <v>       0.04701424       0.10476536       0.12834981 </v>
   <v>       0.10062011      -0.03796362       0.15887577 </v>
   <v>       0.07963699       0.04938242       0.03580500 </v>
   <v>      -0.09265901      -0.09392613      -0.03719870 </v>
   <v>      -0.00664516       0.01732599       0.06089353 </v>
   <v>      -0.01176696      -0.00933266       0.09569469 </v>
   <v>      -0.10139822       0.08107948      -0.11145708 </v>
   <v>       0.00178819      -0.05435315       0.04233042 </v>
   <v>       0.12323406      -0.05611182      -0.09600070 </v>
   <v>       0.10468122       0.04783821      -0.00917199 </v>
   <v>      -0.02575777       0.02466153      -0.41654144 </v>
   <v>       0.01100478       0.00015667       0.01793986 </v>
   <v>       0.02526189       0.06287956      -0.07003965 </v>
   <v>      -0.10854004      -0.04686377       0.03302078 </v>
   <v>      -0.09361574       0.03349926      -0.13481479 </v>
   <v>      -0.18196368       0.10190193       0.03960464 </v>
   <v>      -0.05048455      -0.06262580       0.01962727 </v>
   <v>       0.19092025      -0.01622172       0.15359275 </v>
   <v>      -0.04664308       0.20605444      -0.01067981 </v>
   <v>       0.00882068      -0.05536833      -0.05231698 </v>
   <v>      -0.07849539      -0.03322208      -0.08174074 </v>
   <v>       0.07164818       0.18457135       0.13509209 </v>
   <v>      -0.01670700       0.10135278      -0.03079429 </v>
   <v>       0.05356775      -0.09326011       0.04617011 </v>
   <v>      -0.06085263       0.36165747       0.03018569 </v>
   <v>       0.29976624      -0.06229067      -0.18527395 </v>
   <v>      -0.04235950       0.10363542       0.10025360 </v>
   <v>       0.10104349      -0.06649904       0.37880681 </v>
   <v>      -0.12804614      -0.02409240       0.05096139 </v>
   <v>       0.21349560      -0.33274208      -0.10683217 </v>
  </varray>
  <varray name="stress" >
   <v>      -5.55323696      -0.68367879       0.78268170 </v>
   <v>      -0.68369093      -5.43749660      -0.02404153 </v>
   <v>       0.78278437      -0.02405114      -2.55942559 </v>
  </varray>
  <energy>
   <i name="e_fr_energy">  -1014.04103570 </i>
   <i name="e_wo_entrp">  -1013.92466421 </i>
   <i name="e_0_energy">  -1013.98284996 </i>
  </energy>
  <time name="totalsc">  434.71  435.03</time>
 </calculation>
 <calculation>
  <scstep>
   <time name="dav">    8.42    8.43</time>
   <time name="total">   11.19   11.20</time>
   <energy>
    <i name="alphaZ">   2319.77520036 </i>
    <i name="ewald"> 203767.95061675 </i>
    <i name="hartreedc">-284488.07317097 </i>
    <i name="XCdc">   3287.74962322 </i>
    <i name="pawpsdc">  84944.21321880 </i>
    <i name="pawaedc"> -84044.80060762 </i>
    <i name="eentropy">     -0.13480902 </i>
    <i name="bandstr"> -13468.78165240 </i>
    <i name="atom">  86668.23201156 </i>
    <i name="e_fr_energy">  -1013.86956932 </i>
    <i name="e_wo_entrp">  -1013.73476030 </i>
    <i name="e_0_energy">  -1013.80216481 </i>
   </energy>
  </scstep>
  <scstep>
   <time name="dav">   11.82   11.82</time>
   <time name="total">   14.63   14.64</time>
   <energy>
    <i name="e_fr_energy">  -1014.21922972 </i>
    <i name="e_wo_entrp">  -1014.13512543 </i>
    <i name="e_0_energy">  -1014.17717758 </i>
   </energy>
  </scstep>
  <scstep>
   <time name="dav">   12.03   12.04</time>
   <time name="total">   14.81   14.82</time>
   <energy>
    <i name="e_fr_energy">  -1014.11762280 </i>
    <i name="e_wo_entrp">  -1013.99914978 </i>
    <i name="e_0_energy">  -1014.05838629 </i>
   </energy>
  </scstep>
  <scstep>
   <time name="dav">   11.82   11.82</time>
   <time name="total">   14.53   14.54</time>
   <energy>
    <i name="e_fr_energy">  -1014.08514485 </i>
    <i name="e_wo_entrp">  -1013.98240240 </i>
    <i name="e_0_energy">  -1014.03377362 </i>
   </energy>
  </scstep>
  <scstep>
   <time name="dav">   11.92   11.92</time>
   <time name="total">   14.68   14.69</time>
   <energy>
    <i name="e_fr_energy">  -1014.08097626 </i>
    <i name="e_wo_entrp">  -1013.96359539 </i>
    <i name="e_0_energy">  -1014.02228583 </i>
   </energy>
  </scstep>
  <scstep>
   <time name="dav">   12.21   12.22</time>
   <time name="total">   14.96   14.97</time>
   <energy>
    <i name="e_fr_energy">  -1014.06729848 </i>
    <i name="e_wo_entrp">  -1013.95747420 </i>
    <i name="e_0_energy">  -1014.01238634 </i>
   </energy>
  </scstep>
  <scstep>
   <time name="dav">   11.72   11.72</time>
   <time name="total">   14.48   14.49</time>
   <energy>
    <i name="e_fr_energy">  -1014.07040841 </i>
    <i name="e_wo_entrp">  -1013.94356742 </i>
    <i name="e_0_energy">  -1014.00698791 </i>
   </energy>
  </scstep>
  <scstep>
   <time name="dav">   11.61   11.61</time>
   <time name="total">   14.39   14.40</time>
   <energy>
    <i name="e_fr_energy">  -1014.06906152 </i>
    <i name="e_wo_entrp">  -1013.94871544 </i>
    <i name="e_0_energy">  -1014.00888848 </i>
   </energy>
  </scstep>
  <scstep>
   <time name="dav">   11.61   11.62</time>
   <time name="total">   14.37   14.38</time>
   <energy>
    <i name="e_fr_energy">  -1014.07117530 </i>
    <i name="e_wo_entrp">  -1013.94800500 </i>
    <i name="e_0_energy">  -1014.00959015 </i>
   </energy>
  </scstep>
  <scstep>
   <time name="dav">   10.83   10.83</time>
   <time name="total">   13.61   13.62</time>
   <energy>
    <i name="e_fr_energy">  -1014.07254461 </i>
    <i name="e_wo_entrp">  -1013.95418487 </i>
    <i name="e_0_energy">  -1014.01336474 </i>
   </energy>
  </scstep>
  <scstep>
   <time name="dav">   11.73   11.74</time>
   <time name="total">   14.53   14.53</time>
   <energy>
    <i name="e_fr_energy">  -1014.06924832 </i>
    <i name="e_wo_entrp">  -1013.95210547 </i>
    <i name="e_0_energy">  -1014.01067689 </i>
   </energy>
  </scstep>
  <scstep>
   <time name="dav">   11.73   11.74</time>
   <time name="total">   14.52   14.53</time>
   <energy>
    <i name="e_fr_energy">  -1014.07056901 </i>
    <i name="e_wo_entrp">  -1013.94999191 </i>
    <i name="e_0_energy">  -1014.01028046 </i>
   </energy>
  </scstep>
  <scstep>
   <time name="dav">   11.04   11.05</time>
   <time name="total">   13.80   13.81</time>
   <energy>
    <i name="e_fr_energy">  -1014.07159741 </i>
    <i name="e_wo_entrp">  -1013.95038884 </i>
    <i name="e_0_energy">  -1014.01099313 </i>
   </energy>
  </scstep>
  <scstep>
   <time name="dav">   11.34   11.34</time>
   <time name="total">   14.09   14.10</time>
   <energy>
    <i name="e_fr_energy">  -1014.07221064 </i>
    <i name="e_wo_entrp">  -1013.95257698 </i>
    <i name="e_0_energy">  -1014.01239381 </i>
   </energy>
  </scstep>
  <scstep>
   <time name="dav">   12.13   12.14</time>
   <time name="total">   14.87   14.87</time>
   <energy>
    <i name="e_fr_energy">  -1014.07221162 </i>
    <i name="e_wo_entrp">  -1013.95236592 </i>
    <i name="e_0_energy">  -1014.01228877 </i>
   </energy>
  </scstep>
  <scstep>
   <time name="dav">   12.11   12.11</time>
   <time name="total">   14.88   14.89</time>
   <energy>
    <i name="e_fr_energy">  -1014.07243616 </i>
    <i name="e_wo_entrp">  -1013.95235824 </i>
    <i name="e_0_energy">  -1014.01239720 </i>
   </energy>
  </scstep>
  <scstep>
   <time name="dav">   10.96   10.97</time>
   <time name="total">   13.74   13.74</time>
   <energy>
    <i name="e_fr_energy">  -1014.07265164 </i>
    <i name="e_wo_entrp">  -1013.95275071 </i>
    <i name="e_0_energy">  -1014.01270117 </i>
   </energy>
  </scstep>
  <scstep>
   <time name="dav">   10.45   10.46</time>
   <time name="total">   13.32   13.32</time>
   <energy>
    <i name="e_fr_energy">  -1014.07283375 </i>
    <i name="e_wo_entrp">  -1013.95315853 </i>
    <i name="e_0_energy">  -1014.01299614 </i>
   </energy>
  </scstep>
  <scstep>
   <time name="dav">   11.65   11.66</time>
   <time name="total">   14.37   14.39</time>
   <energy>
    <i name="e_fr_energy">  -1014.07291076 </i>
    <i name="e_wo_entrp">  -1013.95291002 </i>
    <i name="e_0_energy">  -1014.01291039 </i>
   </energy>
  </scstep>
  <scstep>
