 running  192 mpi-ranks, on    1 nodes
 distrk:  each k-point on  192 cores,    1 groups
 distr:  one band on    4 cores,   48 groups
 vasp.6.4.3 19Mar24 (build Mar 01 2025 18:03:59) gamma-only                     
  
 POSCAR found type information on POSCAR CeO Ir
 POSCAR found :  3 types and     152 ions
 Reading from existing POTCAR
 scaLAPACK will be used
 -----------------------------------------------------------------------------
|                                                                             |
|           W    W    AA    RRRRR   N    N  II  N    N   GGGG   !!!           |
|           W    W   A  A   R    R  NN   N  II  NN   N  G    G  !!!           |
|           W    W  A    A  R    R  N N  N  II  N N  N  G       !!!           |
|           W WW W  AAAAAA  RRRRR   N  N N  II  N  N N  G  GGG   !            |
|           WW  WW  A    A  R   R   N   NN  II  N   NN  G    G                |
|           W    W  A    A  R    R  N    N  II  N    N   GGGG   !!!           |
|                                                                             |
|     For optimal performance we recommend to set                             |
|       NCORE = 2 up to number-of-cores-per-socket                            |
|     NCORE specifies how many cores store one orbital (NPAR=cpu/NCORE).      |
|     This setting can greatly improve the performance of VASP for DFT.       |
|     The default, NCORE=1 might be grossly inefficient on modern             |
|     multi-core architectures or massively parallel machines. Do your        |
|     own testing! More info at https://www.vasp.at/wiki/index.php/NCORE      |
|     Unfortunately you need to use the default for GW and RPA                |
|     calculations (for HF NCORE is supported but not extensively tested      |
|     yet).                                                                   |
|                                                                             |
 -----------------------------------------------------------------------------

 Reading from existing POTCAR
 -----------------------------------------------------------------------------
|                                                                             |
|               ----> ADVICE to this user running VASP <----                  |
|                                                                             |
|     You have a (more or less) 'large supercell' and for larger cells it     |
|     might be more efficient to use real-space projection operators.         |
|     Therefore, try LREAL= Auto in the INCAR file.                           |
|     Mind: For very accurate calculation, you might also keep the            |
|     reciprocal projection scheme (i.e. LREAL=.FALSE.).                      |
|                                                                             |
 -----------------------------------------------------------------------------

 LDA part: xc-table for (Slater+PW92), standard interpolation
 POSCAR, INCAR and KPOINTS ok, starting setup
 FFT: planning ... GRIDC
 FFT: planning ... GRID_SOFT
 FFT: planning ... GRID
 WAVECAR not read
 WARNING: random wavefunctions but no delay for mixing, default for NELMDL
 entering main loop
       N       E                     dE             d eps       ncg     rms          rms(c)
DAV:   1     0.210575636636E+05    0.21058E+05   -0.50435E+05  3072   0.163E+03
DAV:   2     0.620133685757E+04   -0.14856E+05   -0.13070E+05  3504   0.449E+02
DAV:   3     0.237820364505E+03   -0.59635E+04   -0.53240E+04  3792   0.259E+02
DAV:   4    -0.113729550955E+04   -0.13751E+04   -0.13209E+04  3984   0.120E+02
DAV:   5    -0.124866201166E+04   -0.11137E+03   -0.10346E+03  5088   0.387E+01    0.206E+02
DAV:   6    -0.167231769767E+04   -0.42366E+03   -0.54902E+03  5136   0.834E+01    0.707E+02
DAV:   7    -0.192095581131E+04   -0.24864E+03   -0.10958E+03  4992   0.392E+01    0.777E+02
DAV:   8    -0.178108616258E+04    0.13987E+03   -0.37919E+02  5088   0.609E+01    0.730E+02
DAV:   9    -0.177026784566E+04    0.10818E+02   -0.35757E+02  4992   0.405E+01    0.718E+02
DAV:  10    -0.169878138790E+04    0.71486E+02   -0.77501E+02  5040   0.892E+01    0.699E+02
DAV:  11    -0.173714749158E+04   -0.38366E+02   -0.11116E+03  4992   0.857E+01    0.639E+02
DAV:  12    -0.159263160473E+04    0.14452E+03   -0.41445E+02  4800   0.643E+01    0.572E+02
DAV:  13    -0.160274767507E+04   -0.10116E+02   -0.24343E+03  4752   0.128E+02    0.520E+02
DAV:  14    -0.117377774257E+04    0.42897E+03   -0.15057E+03  4656   0.173E+02    0.382E+02
DAV:  15    -0.123646672755E+04   -0.62689E+02   -0.47499E+03  4704   0.223E+02    0.328E+02
DAV:  16    -0.109384819435E+04    0.14262E+03   -0.22745E+03  4800   0.196E+02    0.207E+02
DAV:  17    -0.104399931711E+04    0.49849E+02   -0.33510E+03  4800   0.211E+02    0.156E+02
DAV:  18    -0.105475344175E+04   -0.10754E+02   -0.10501E+03  4464   0.851E+01    0.159E+02
DAV:  19    -0.101508161774E+04    0.39672E+02   -0.71604E+02  4560   0.598E+01    0.128E+02
DAV:  20    -0.101268511421E+04    0.23965E+01   -0.22275E+02  4704   0.192E+01    0.129E+02
DAV:  21    -0.997394938658E+03    0.15290E+02   -0.68510E+01  4416   0.891E+00    0.118E+02
DAV:  22    -0.993015269817E+03    0.43797E+01   -0.56435E+01  5088   0.632E+00    0.119E+02
DAV:  23    -0.984064451358E+03    0.89508E+01   -0.31589E+01  4512   0.535E+00    0.117E+02
DAV:  24    -0.979351260276E+03    0.47132E+01   -0.26312E+01  4944   0.504E+00    0.116E+02
DAV:  25    -0.970523271881E+03    0.88280E+01   -0.16224E+01  4320   0.441E+00    0.113E+02
DAV:  26    -0.968545591552E+03    0.19777E+01   -0.23850E+01  5280   0.454E+00    0.114E+02
DAV:  27    -0.962432289669E+03    0.61133E+01   -0.16969E+01  5136   0.474E+00    0.110E+02
DAV:  28    -0.957729671544E+03    0.47026E+01   -0.20484E+01  5184   0.486E+00    0.110E+02
DAV:  29    -0.954929179151E+03    0.28005E+01   -0.21158E+01  5376   0.456E+00    0.108E+02
DAV:  30    -0.954485803681E+03    0.44338E+00   -0.59128E+00  5328   0.332E+00    0.106E+02
DAV:  31    -0.956403452436E+03   -0.19176E+01   -0.12540E+01  4992   0.396E+00    0.106E+02
DAV:  32    -0.952710752653E+03    0.36927E+01   -0.66470E+00  5088   0.386E+00    0.101E+02
DAV:  33    -0.958610764848E+03   -0.59000E+01   -0.26103E+01  5040   0.603E+00    0.104E+02
DAV:  34    -0.956011426982E+03    0.25993E+01   -0.79989E+00  5616   0.409E+00    0.989E+01
DAV:  35    -0.957919921505E+03   -0.19085E+01   -0.59176E+00  5232   0.379E+00    0.977E+01
DAV:  36    -0.958828617490E+03   -0.90870E+00   -0.23686E+00  4752   0.254E+00    0.958E+01
DAV:  37    -0.959508835375E+03   -0.68022E+00   -0.40094E+00  5328   0.253E+00    0.942E+01
DAV:  38    -0.962889927472E+03   -0.33811E+01   -0.12347E+01  4848   0.565E+00    0.930E+01
DAV:  39    -0.962706848589E+03    0.18308E+00   -0.24154E+00  4848   0.295E+00    0.903E+01
DAV:  40    -0.965237803004E+03   -0.25310E+01   -0.49191E+00  5232   0.310E+00    0.943E+01
DAV:  41    -0.964591899924E+03    0.64590E+00   -0.17707E+00  5232   0.226E+00    0.915E+01
DAV:  42    -0.966404331995E+03   -0.18124E+01   -0.34298E+00  4992   0.218E+00    0.914E+01
DAV:  43    -0.966699838794E+03   -0.29551E+00   -0.40581E+00  5328   0.212E+00    0.902E+01
DAV:  44    -0.966193843177E+03    0.50600E+00   -0.20249E+00  5088   0.192E+00    0.890E+01
DAV:  45    -0.967415062306E+03   -0.12212E+01   -0.45174E+00  5184   0.254E+00    0.898E+01
DAV:  46    -0.968418230467E+03   -0.10032E+01   -0.87757E-01  4656   0.117E+00    0.906E+01
DAV:  47    -0.968582479340E+03   -0.16425E+00   -0.12652E-01  5136   0.405E-01    0.910E+01
DAV:  48    -0.968635992274E+03   -0.53513E-01   -0.41208E-02  5376   0.268E-01    0.910E+01
DAV:  49    -0.968843447471E+03   -0.20746E+00   -0.83237E-01  5424   0.791E-01    0.909E+01
DAV:  50    -0.969602240503E+03   -0.75879E+00   -0.12703E+00  5136   0.925E-01    0.934E+01
DAV:  51    -0.964207020538E+03    0.53952E+01   -0.56043E+02  4560   0.817E+01    0.114E+02
DAV:  52    -0.967095086620E+03   -0.28881E+01   -0.53748E+02  4656   0.728E+01    0.724E+01
DAV:  53    -0.972283527730E+03   -0.51884E+01   -0.14451E+02  4800   0.144E+01    0.657E+01
DAV:  54    -0.969216580528E+03    0.30669E+01   -0.59982E+01  4848   0.951E+00    0.570E+01
DAV:  55    -0.966068767190E+03    0.31478E+01   -0.99196E+01  5232   0.749E+00    0.524E+01
DAV:  56    -0.960069212455E+03    0.59996E+01   -0.79853E+01  4944   0.130E+01    0.464E+01
DAV:  57    -0.952461512087E+03    0.76077E+01   -0.67288E+01  5280   0.181E+01    0.436E+01
DAV:  58    -0.953465499467E+03   -0.10040E+01   -0.82563E+01  4752   0.107E+01    0.381E+01
DAV:  59    -0.950396280521E+03    0.30692E+01   -0.44251E+01  5520   0.740E+00    0.427E+01
DAV:  60    -0.948934704373E+03    0.14616E+01   -0.51280E+01  5376   0.701E+00    0.349E+01
DAV:  61    -0.950085225257E+03   -0.11505E+01   -0.17760E+01  5280   0.647E+00    0.365E+01
DAV:  62    -0.951371465651E+03   -0.12862E+01   -0.10219E+01  4896   0.360E+00    0.349E+01
DAV:  63    -0.950503656398E+03    0.86781E+00   -0.39178E+00  4656   0.304E+00    0.365E+01
DAV:  64    -0.949474477071E+03    0.10292E+01   -0.10104E+00  4896   0.195E+00    0.384E+01
DAV:  65    -0.949286767184E+03    0.18771E+00   -0.25004E-01  5088   0.950E-01    0.389E+01
DAV:  66    -0.948318920822E+03    0.96785E+00   -0.42072E+00  5184   0.374E+00    0.433E+01
DAV:  67    -0.946512817065E+03    0.18061E+01   -0.18018E+00  4560   0.317E+00    0.424E+01
DAV:  68    -0.946509002401E+03    0.38147E-02   -0.18421E+00  4944   0.240E+00    0.438E+01
DAV:  69    -0.944163140141E+03    0.23459E+01   -0.14372E+00  4848   0.172E+00    0.446E+01
DAV:  70    -0.943727283080E+03    0.43586E+00   -0.11225E-01  5136   0.567E-01    0.445E+01
DAV:  71    -0.944855878921E+03   -0.11286E+01   -0.35724E+00  4992   0.690E+00    0.385E+01
DAV:  72    -0.944087997668E+03    0.76788E+00   -0.18115E+00  4944   0.271E+00    0.389E+01
DAV:  73    -0.943454767593E+03    0.63323E+00   -0.37561E-01  4704   0.128E+00    0.390E+01
DAV:  74    -0.943559282972E+03   -0.10452E+00   -0.97161E-02  4752   0.574E-01    0.389E+01
DAV:  75    -0.944175193270E+03   -0.61591E+00   -0.26371E-01  4848   0.106E+00    0.396E+01
DAV:  76    -0.947435058562E+03   -0.32599E+01   -0.92974E+00  4848   0.839E+00    0.382E+01
DAV:  77    -0.947337760129E+03    0.97298E-01   -0.38031E+00  4992   0.346E+00    0.371E+01
DAV:  78    -0.948305961451E+03   -0.96820E+00   -0.71204E+00  4848   0.379E+00    0.409E+01
DAV:  79    -0.947990703568E+03    0.31526E+00   -0.12392E+00  5184   0.198E+00    0.398E+01
DAV:  80    -0.949740355076E+03   -0.17497E+01   -0.10484E+00  5136   0.200E+00    0.406E+01
DAV:  81    -0.948428330777E+03    0.13120E+01   -0.56320E+00  4848   0.370E+00    0.428E+01
DAV:  82    -0.949948262650E+03   -0.15199E+01   -0.52220E+00  4992   0.297E+00    0.406E+01
DAV:  83    -0.950590150013E+03   -0.64189E+00   -0.62218E-01  4800   0.151E+00    0.390E+01
DAV:  84    -0.952238730250E+03   -0.16486E+01   -0.14599E+00  5472   0.204E+00    0.404E+01
DAV:  85    -0.952638101763E+03   -0.39937E+00   -0.40051E+00  5040   0.430E+00    0.375E+01
DAV:  86    -0.954087771353E+03   -0.14497E+01   -0.13872E+01  4944   0.959E+00    0.282E+01
DAV:  87    -0.956316731975E+03   -0.22290E+01   -0.16443E+01  4992   0.525E+00    0.262E+01
DAV:  88    -0.957283558213E+03   -0.96683E+00   -0.54357E+00  5232   0.360E+00    0.251E+01
DAV:  89    -0.957661396959E+03   -0.37784E+00   -0.73005E+00  5040   0.278E+00    0.262E+01
DAV:  90    -0.957708702448E+03   -0.47305E-01   -0.39457E+00  5136   0.189E+00
 -----------------------------------------------------------------------------
|                                                                             |
|           W    W    AA    RRRRR   N    N  II  N    N   GGGG   !!!           |
|           W    W   A  A   R    R  NN   N  II  NN   N  G    G  !!!           |
|           W    W  A    A  R    R  N N  N  II  N N  N  G       !!!           |
|           W WW W  AAAAAA  RRRRR   N  N N  II  N  N N  G  GGG   !            |
|           WW  WW  A    A  R   R   N   NN  II  N   NN  G    G                |
|           W    W  A    A  R    R  N    N  II  N    N   GGGG   !!!           |
|                                                                             |
|     The electronic self-consistency was not achieved in the given           |
|     number of steps (NELM). The forces and other quantities evaluated       |
|     might not be reliable so examine the results carefully. If you find     |
|     spurious results, we suggest increasing NELM, if you were close to      |
|     convergence or switching to a different ALGO or adjusting the           |
|     density mixing parameters otherwise.                                    |
|                                                                             |
 -----------------------------------------------------------------------------

   1 F= -.95770870E+03 E0= -.95767742E+03  d E =-.957709E+03  mag=    61.9746
 curvature:   0.00 expect dE= 0.000E+00 dE for cont linesearch  0.000E+00
 trial: gam= 0.00000 g(F)=  0.473E+02 g(S)=  0.000E+00 ort = 0.000E+00 (trialstep = 0.100E+01)
 search vector abs. value=  0.473E+02
 bond charge predicted
       N       E                     dE             d eps       ncg     rms          rms(c)
DAV:   1    -0.915098699443E+03    0.42563E+02   -0.10194E+04  3504   0.115E+02    0.940E+01
DAV:   2    -0.106818393818E+04   -0.15309E+03   -0.11689E+03  4896   0.546E+01    0.309E+02
DAV:   3    -0.106672942031E+04    0.14545E+01   -0.21617E+02  5040   0.201E+01    0.324E+02
DAV:   4    -0.108230592578E+04   -0.15577E+02   -0.18656E+01  5568   0.569E+00    0.350E+02
DAV:   5    -0.106556963471E+04    0.16736E+02   -0.24048E+01  4848   0.333E+00    0.328E+02
DAV:   6    -0.105775694211E+04    0.78127E+01   -0.70505E+01  5328   0.776E+00    0.317E+02
DAV:   7    -0.102631190873E+04    0.31445E+02   -0.14112E+02  4944   0.107E+01    0.289E+02
DAV:   8    -0.976157385898E+03    0.50155E+02   -0.27442E+02  5136   0.117E+01    0.230E+02
DAV:   9    -0.955715760771E+03    0.20442E+02   -0.90352E+01  4848   0.903E+00    0.191E+02
DAV:  10    -0.946215908685E+03    0.94999E+01   -0.10069E+02  4176   0.107E+01    0.153E+02
DAV:  11    -0.929397495816E+03    0.16818E+02   -0.99843E+01  4800   0.103E+01    0.123E+02
DAV:  12    -0.908353022499E+03    0.21044E+02   -0.15955E+02  4416   0.109E+01    0.141E+02
DAV:  13    -0.877115505506E+03    0.31238E+02   -0.97197E+01  4464   0.911E+00    0.115E+02
DAV:  14    -0.834512417681E+03    0.42603E+02   -0.96699E+01  4464   0.101E+01    0.120E+02
DAV:  15    -0.810715964686E+03    0.23796E+02   -0.65769E+01  4416   0.719E+00    0.120E+02
DAV:  16    -0.796501413497E+03    0.14215E+02   -0.24350E+01  4608   0.484E+00    0.121E+02
DAV:  17    -0.790364406722E+03    0.61370E+01   -0.69108E+01  4800   0.557E+00    0.124E+02
DAV:  18    -0.784151949984E+03    0.62125E+01   -0.35898E+01  4752   0.486E+00    0.125E+02
DAV:  19    -0.785140794795E+03   -0.98884E+00   -0.28941E+01  4608   0.495E+00    0.128E+02
DAV:  20    -0.788036632570E+03   -0.28958E+01   -0.32576E+01  4608   0.464E+00    0.129E+02
DAV:  21    -0.790593734033E+03   -0.25571E+01   -0.30763E+01  4512   0.414E+00    0.132E+02
DAV:  22    -0.794571109295E+03   -0.39774E+01   -0.45902E+01  4512   0.384E+00    0.134E+02
DAV:  23    -0.799699241139E+03   -0.51281E+01   -0.24597E+01  4320   0.345E+00    0.139E+02
DAV:  24    -0.801816372136E+03   -0.21171E+01   -0.44249E+00  4368   0.220E+00    0.138E+02
DAV:  25    -0.805773201395E+03   -0.39568E+01   -0.18528E+00  4512   0.173E+00    0.139E+02
DAV:  26    -0.808401773322E+03   -0.26286E+01   -0.11642E+00  4752   0.143E+00    0.140E+02
DAV:  27    -0.816131691793E+03   -0.77299E+01   -0.52213E+00  4608   0.270E+00    0.143E+02
DAV:  28    -0.820948502066E+03   -0.48168E+01   -0.32411E+00  4704   0.256E+00    0.145E+02
DAV:  29    -0.837291574787E+03   -0.16343E+02   -0.12232E+01  4896   0.368E+00    0.153E+02
DAV:  30    -0.843917971940E+03   -0.66264E+01   -0.77391E+00  4464   0.261E+00    0.155E+02
DAV:  31    -0.856585074928E+03   -0.12667E+02   -0.92988E+00  4512   0.243E+00    0.155E+02
DAV:  32    -0.860878864540E+03   -0.42938E+01   -0.21076E+00  4320   0.152E+00    0.156E+02
DAV:  33    -0.861923192485E+03   -0.10443E+01   -0.59972E-01  4416   0.694E-01    0.156E+02
DAV:  34    -0.862303016848E+03   -0.37982E+00   -0.34806E-01  4416   0.625E-01    0.157E+02
DAV:  35    -0.862185982614E+03    0.11703E+00   -0.50252E-02  4080   0.288E-01    0.157E+02
DAV:  36    -0.863757804742E+03   -0.15718E+01   -0.23208E+00  4128   0.153E+00    0.157E+02
DAV:  37    -0.868983488051E+03   -0.52257E+01   -0.34274E+00  4224   0.166E+00    0.159E+02
DAV:  38    -0.870547075982E+03   -0.15636E+01   -0.43778E-01  4416   0.820E-01    0.159E+02
DAV:  39    -0.879112183195E+03   -0.85651E+01   -0.43179E+00  4368   0.205E+00    0.162E+02
DAV:  40    -0.884423641586E+03   -0.53115E+01   -0.59900E+00  4368   0.241E+00    0.162E+02
DAV:  41    -0.888175506916E+03   -0.37519E+01   -0.41492E+01  3792   0.608E+00    0.162E+02
DAV:  42    -0.886938759974E+03    0.12367E+01   -0.71092E+00  4272   0.253E+00    0.162E+02
DAV:  43    -0.887053759424E+03   -0.11500E+00   -0.21081E+00  4368   0.135E+00    0.162E+02
DAV:  44    -0.886516309228E+03    0.53745E+00   -0.11678E+01  4176   0.221E+00    0.163E+02
DAV:  45    -0.886407295335E+03    0.10901E+00   -0.80184E+00  4224   0.201E+00    0.163E+02
DAV:  46    -0.885861060786E+03    0.54623E+00   -0.46849E+00  4512   0.134E+00    0.163E+02
DAV:  47    -0.838535980398E+03    0.47325E+02   -0.93866E+02  4704   0.345E+01    0.150E+02
DAV:  48    -0.816315109793E+03    0.22221E+02   -0.19830E+02  4560   0.152E+01    0.107E+02
DAV:  49    -0.807282541172E+03    0.90326E+01   -0.58924E+01  5136   0.708E+00    0.957E+01
DAV:  50    -0.811018255353E+03   -0.37357E+01   -0.10662E+01  4608   0.376E+00    0.937E+01
DAV:  51    -0.815665399133E+03   -0.46471E+01   -0.29633E+01  4656   0.467E+00    0.915E+01
DAV:  52    -0.835217353627E+03   -0.19552E+02   -0.19639E+02  4896   0.997E+00    0.886E+01
DAV:  53    -0.853102323479E+03   -0.17885E+02   -0.13471E+02  4848   0.104E+01    0.817E+01
DAV:  54    -0.870276611148E+03   -0.17174E+02   -0.77846E+01  4704   0.871E+00    0.798E+01
DAV:  55    -0.868573145694E+03    0.17035E+01   -0.56874E+01  4944   0.727E+00    0.810E+01
DAV:  56    -0.862627189923E+03    0.59460E+01   -0.29675E+01  4272   0.573E+00    0.841E+01
DAV:  57    -0.851783852508E+03    0.10843E+02   -0.41903E+01  4416   0.655E+00    0.875E+01
DAV:  58    -0.846129253570E+03    0.56546E+01   -0.22749E+01  4848   0.542E+00    0.912E+01
DAV:  59    -0.846241568257E+03   -0.11231E+00   -0.20358E+01  4464   0.367E+00    0.939E+01
DAV:  60    -0.830561405232E+03    0.15680E+02   -0.96166E+00  4128   0.312E+00    0.998E+01
DAV:  61    -0.823899179832E+03    0.66622E+01   -0.22339E+00  4896   0.154E+00    0.101E+02
DAV:  62    -0.826543533674E+03   -0.26444E+01   -0.52083E+00  4512   0.257E+00    0.103E+02
DAV:  63    -0.824612782540E+03    0.19308E+01   -0.44119E+00  4704   0.240E+00    0.103E+02
DAV:  64    -0.825272463603E+03   -0.65968E+00   -0.11417E+01  4224   0.233E+00    0.104E+02
DAV:  65    -0.824020106380E+03    0.12524E+01   -0.14925E+00  4272   0.107E+00    0.104E+02
DAV:  66    -0.826258553383E+03   -0.22384E+01   -0.33298E-01  4032   0.624E-01    0.104E+02
DAV:  67    -0.825054589846E+03    0.12040E+01   -0.14190E+00  4416   0.170E+00    0.103E+02
DAV:  68    -0.824101632285E+03    0.95296E+00   -0.45418E-01  4080   0.793E-01    0.103E+02
DAV:  69    -0.831530429993E+03   -0.74288E+01   -0.61161E-01  4032   0.890E-01    0.103E+02
DAV:  70    -0.828392119875E+03    0.31383E+01   -0.38684E-01  3840   0.740E-01    0.103E+02
DAV:  71    -0.832250353813E+03   -0.38582E+01   -0.56552E-01  4080   0.878E-01    0.103E+02
DAV:  72    -0.817565135601E+03    0.14685E+02   -0.20998E+01  4368   0.572E+00    0.102E+02
DAV:  73    -0.830183850909E+03   -0.12619E+02   -0.14060E+01  4176   0.481E+00    0.102E+02
DAV:  74    -0.837111242177E+03   -0.69274E+01   -0.16512E+01  4032   0.455E+00    0.106E+02
DAV:  75    -0.829096960600E+03    0.80143E+01   -0.81430E+00  4800   0.279E+00    0.107E+02
DAV:  76    -0.825515621424E+03    0.35813E+01   -0.11115E+00  4992   0.121E+00    0.108E+02
DAV:  77    -0.937644652057E+03   -0.11213E+03   -0.77590E+02  4224   0.250E+01    0.734E+01
DAV:  78    -0.925753755601E+03    0.11891E+02   -0.21921E+02  4512   0.140E+01    0.583E+01
DAV:  79    -0.925214550834E+03    0.53920E+00   -0.99615E+01  4656   0.995E+00    0.501E+01
DAV:  80    -0.923172270035E+03    0.20423E+01   -0.52601E+01  4656   0.836E+00    0.421E+01
DAV:  81    -0.931531335345E+03   -0.83591E+01   -0.33196E+01  4512   0.620E+00    0.338E+01
DAV:  82    -0.945048565230E+03   -0.13517E+02   -0.64789E+01  4368   0.795E+00    0.371E+01
DAV:  83    -0.939507350223E+03    0.55412E+01   -0.29018E+01  5040   0.868E+00    0.306E+01
DAV:  84    -0.937095907131E+03    0.24114E+01   -0.19001E+01  4656   0.557E+00    0.298E+01
DAV:  85    -0.932785477898E+03    0.43104E+01   -0.12884E+01  4176   0.481E+00    0.303E+01
DAV:  86    -0.935505926885E+03   -0.27204E+01   -0.80392E+00  4512   0.221E+00    0.292E+01
DAV:  87    -0.939285682842E+03   -0.37798E+01   -0.59801E+00  4224   0.294E+00    0.299E+01
DAV:  88    -0.936658136446E+03    0.26275E+01   -0.11639E+01  4704   0.280E+00    0.342E+01
DAV:  89    -0.939851073560E+03   -0.31929E+01   -0.28867E+01  4464   0.220E+00    0.286E+01
DAV:  90    -0.936775746693E+03    0.30753E+01   -0.41849E+00  4080   0.216E+00
 -----------------------------------------------------------------------------
|                                                                             |
|           W    W    AA    RRRRR   N    N  II  N    N   GGGG   !!!           |
|           W    W   A  A   R    R  NN   N  II  NN   N  G    G  !!!           |
|           W    W  A    A  R    R  N N  N  II  N N  N  G       !!!           |
|           W WW W  AAAAAA  RRRRR   N  N N  II  N  N N  G  GGG   !            |
|           WW  WW  A    A  R   R   N   NN  II  N   NN  G    G                |
|           W    W  A    A  R    R  N    N  II  N    N   GGGG   !!!           |
|                                                                             |
|     The electronic self-consistency was not achieved in the given           |
|     number of steps (NELM). The forces and other quantities evaluated       |
|     might not be reliable so examine the results carefully. If you find     |
|     spurious results, we suggest increasing NELM, if you were close to      |
|     convergence or switching to a different ALGO or adjusting the           |
|     density mixing parameters otherwise.                                    |
|                                                                             |
 -----------------------------------------------------------------------------

   2 F= -.93677575E+03 E0= -.93674112E+03  d E =0.209330E+02  mag=    44.4184
 trial-energy change:   20.932956  1 .order    2.371733  -47.270367   52.013832
 step:   0.2602(harm=  0.4761)  dis= 0.09902  next Energy=  -963.531443 (dE=-0.582E+01)
 bond charge predicted
       N       E                     dE             d eps       ncg     rms          rms(c)
DAV:   1    -0.922686323277E+03    0.17165E+02   -0.59362E+03  3408   0.803E+01    0.823E+01
DAV:   2    -0.104208665120E+04   -0.11940E+03   -0.72096E+02  4704   0.340E+01    0.116E+02
DAV:   3    -0.982456753213E+03    0.59630E+02   -0.48121E+02  5088   0.242E+01    0.857E+01
DAV:   4    -0.985152400431E+03   -0.26956E+01   -0.27296E+02  4992   0.190E+01    0.975E+01
DAV:   5    -0.978831153360E+03    0.63212E+01   -0.15590E+02  4800   0.126E+01    0.858E+01
DAV:   6    -0.977945378152E+03    0.88578E+00   -0.78686E+01  4896   0.101E+01    0.666E+01
DAV:   7    -0.990236714508E+03   -0.12291E+02   -0.22712E+02  4752   0.140E+01    0.663E+01
DAV:   8    -0.981779329987E+03    0.84574E+01   -0.15372E+02  4896   0.133E+01    0.514E+01
DAV:   9    -0.973262757323E+03    0.85166E+01   -0.98108E+01  4560   0.101E+01    0.404E+01
DAV:  10    -0.969780281552E+03    0.34825E+01   -0.73969E+01  4416   0.629E+00    0.324E+01
DAV:  11    -0.967661145674E+03    0.21191E+01   -0.25412E+01  4896   0.424E+00    0.256E+01
DAV:  12    -0.968434779832E+03   -0.77363E+00   -0.15149E+01  4656   0.228E+00    0.272E+01
DAV:  13    -0.968476039162E+03   -0.41259E-01   -0.12736E+01  4656   0.188E+00    0.220E+01
DAV:  14    -0.968426001450E+03    0.50038E-01   -0.15546E+00  4176   0.120E+00    0.189E+01
DAV:  15    -0.968820659271E+03   -0.39466E+00   -0.21919E+00  4944   0.108E+00    0.208E+01
DAV:  16    -0.969110398160E+03   -0.28974E+00   -0.23010E+00  4752   0.985E-01    0.185E+01
DAV:  17    -0.969082587430E+03    0.27811E-01   -0.12105E-01  4272   0.429E-01    0.187E+01
DAV:  18    -0.968737232034E+03    0.34536E+00   -0.52265E-01  4752   0.603E-01    0.191E+01
DAV:  19    -0.968197730098E+03    0.53950E+00   -0.90687E-01  4608   0.112E+00    0.191E+01
DAV:  20    -0.967785984758E+03    0.41175E+00   -0.80879E-01  4464   0.956E-01    0.174E+01
DAV:  21    -0.968122537340E+03   -0.33655E+00   -0.20727E+00  4368   0.129E+00    0.177E+01
DAV:  22    -0.968035206776E+03    0.87331E-01   -0.73109E-01  4224   0.855E-01    0.168E+01
DAV:  23    -0.968276898263E+03   -0.24169E+00   -0.30112E-01  4608   0.694E-01    0.161E+01
DAV:  24    -0.968197023854E+03    0.79874E-01   -0.26594E+00  4608   0.172E+00    0.139E+01
DAV:  25    -0.968184772907E+03    0.12251E-01   -0.34692E+00  4320   0.212E+00    0.142E+01
DAV:  26    -0.968510037586E+03   -0.32526E+00   -0.14095E+00  4368   0.165E+00    0.127E+01
DAV:  27    -0.969368935188E+03   -0.85890E+00   -0.89182E-01  4464   0.129E+00    0.111E+01
DAV:  28    -0.970722497803E+03   -0.13536E+01   -0.10650E+00  4368   0.119E+00    0.966E+00
DAV:  29    -0.971109115911E+03   -0.38662E+00   -0.43129E-01  4800   0.747E-01    0.889E+00
DAV:  30    -0.971757709845E+03   -0.64859E+00   -0.31942E-01  4464   0.855E-01    0.805E+00
DAV:  31    -0.972648217963E+03   -0.89051E+00   -0.10360E+00  4560   0.128E+00    0.794E+00
DAV:  32    -0.973189584090E+03   -0.54137E+00   -0.77938E-01  4416   0.102E+00    0.788E+00
DAV:  33    -0.973883218833E+03   -0.69363E+00   -0.48243E-01  4464   0.837E-01    0.837E+00
DAV:  34    -0.974185754998E+03   -0.30254E+00   -0.27042E-01  4320   0.582E-01    0.863E+00
DAV:  35    -0.974222787751E+03   -0.37033E-01   -0.68549E-02  4848   0.351E-01    0.814E+00
DAV:  36    -0.974252582105E+03   -0.29794E-01   -0.25558E-02  4368   0.204E-01    0.774E+00
DAV:  37    -0.974357466983E+03   -0.10488E+00   -0.36110E-02  4368   0.261E-01    0.743E+00
DAV:  38    -0.974589559231E+03   -0.23209E+00   -0.77380E-02  4272   0.311E-01    0.715E+00
DAV:  39    -0.974852521326E+03   -0.26296E+00   -0.22444E-01  4512   0.543E-01    0.693E+00
DAV:  40    -0.975031791814E+03   -0.17927E+00   -0.29481E-01  4512   0.674E-01    0.542E+00
DAV:  41    -0.975334640129E+03   -0.30285E+00   -0.15359E-01  4512   0.537E-01    0.505E+00
DAV:  42    -0.975359027056E+03   -0.24387E-01   -0.41023E-02  4560   0.275E-01    0.436E+00
DAV:  43    -0.975553880611E+03   -0.19485E+00   -0.60278E-02  4416   0.297E-01    0.492E+00
DAV:  44    -0.975621954718E+03   -0.68074E-01   -0.25259E-02  4416   0.186E-01    0.434E+00
DAV:  45    -0.975774932231E+03   -0.15298E+00   -0.69946E-02  4272   0.249E-01    0.398E+00
DAV:  46    -0.975827781458E+03   -0.52849E-01   -0.16491E-02  4512   0.161E-01    0.386E+00
DAV:  47    -0.975916713469E+03   -0.88932E-01   -0.28917E-02  4464   0.202E-01    0.407E+00
DAV:  48    -0.975911242413E+03    0.54711E-02   -0.35347E-03  3984   0.831E-02    0.407E+00
DAV:  49    -0.975910558571E+03    0.68384E-03   -0.31153E-04  5472   0.235E-02    0.407E+00
DAV:  50    -0.975938517656E+03   -0.27959E-01   -0.71825E-03  4560   0.117E-01    0.408E+00
DAV:  51    -0.975973532135E+03   -0.35014E-01   -0.25008E-02  4464   0.178E-01    0.354E+00
DAV:  52    -0.976096571015E+03   -0.12304E+00   -0.74061E-02  4464   0.349E-01    0.370E+00
DAV:  53    -0.976112319858E+03   -0.15749E-01   -0.41624E-02  4272   0.247E-01    0.339E+00
DAV:  54    -0.976164834721E+03   -0.52515E-01   -0.33406E-02  4176   0.185E-01    0.397E+00
DAV:  55    -0.976171417742E+03   -0.65830E-02   -0.10857E-02  4272   0.117E-01    0.418E+00
DAV:  56    -0.976180839708E+03   -0.94220E-02   -0.33012E-03  4464   0.644E-02    0.407E+00
DAV:  57    -0.976169582049E+03    0.11258E-01   -0.77221E-02  4320   0.357E-01    0.414E+00
DAV:  58    -0.976168318091E+03    0.12640E-02   -0.18472E-02  4608   0.177E-01    0.421E+00
DAV:  59    -0.976155740928E+03    0.12577E-01   -0.28575E-03  4464   0.749E-02    0.409E+00
DAV:  60    -0.976148273834E+03    0.74671E-02   -0.95571E-04  4608   0.447E-02    0.406E+00
DAV:  61    -0.976140652363E+03    0.76215E-02   -0.27546E-03  4224   0.697E-02    0.389E+00
DAV:  62    -0.976368979573E+03   -0.22833E+00   -0.95801E-01  4416   0.572E-01    0.128E+01
DAV:  63    -0.976268468163E+03    0.10051E+00   -0.42255E-02  3792   0.274E-01    0.110E+01
DAV:  64    -0.976199550764E+03    0.68917E-01   -0.98240E-02  4560   0.151E-01    0.924E+00
DAV:  65    -0.976185116557E+03    0.14434E-01   -0.89963E-02  3936   0.160E-01    0.723E+00
DAV:  66    -0.976199663026E+03   -0.14546E-01   -0.13455E-02  4176   0.123E-01    0.760E+00
DAV:  67    -0.976192817292E+03    0.68457E-02   -0.76552E-02  4560   0.181E-01    0.619E+00
DAV:  68    -0.976204242081E+03   -0.11425E-01   -0.30055E-02  4032   0.183E-01    0.541E+00
DAV:  69    -0.976216022308E+03   -0.11780E-01   -0.65756E-03  3936   0.908E-02    0.596E+00
DAV:  70    -0.976226999892E+03   -0.10978E-01   -0.62097E-02  4608   0.191E-01    0.506E+00
DAV:  71    -0.976302023864E+03   -0.75024E-01   -0.30575E-02  4176   0.247E-01    0.467E+00
DAV:  72    -0.976314231062E+03   -0.12207E-01   -0.60310E-02  4416   0.180E-01    0.353E+00
DAV:  73    -0.976314387011E+03   -0.15595E-03   -0.21287E-02  4320   0.201E-01    0.295E+00
DAV:  74    -0.976338563940E+03   -0.24177E-01   -0.11620E-02  4512   0.140E-01    0.287E+00
DAV:  75    -0.976351721400E+03   -0.13157E-01   -0.42635E-03  4608   0.771E-02    0.295E+00
DAV:  76    -0.976361662569E+03   -0.99412E-02   -0.57674E-03  4032   0.585E-02    0.293E+00
DAV:  77    -0.976310716286E+03    0.50946E-01   -0.57993E-02  4464   0.275E-01    0.359E+00
DAV:  78    -0.976315786043E+03   -0.50698E-02   -0.28093E-02  4464   0.214E-01    0.302E+00
DAV:  79    -0.976343851127E+03   -0.28065E-01   -0.10436E-02  4272   0.120E-01    0.293E+00
DAV:  80    -0.976409635613E+03   -0.65784E-01   -0.26172E-02  4416   0.166E-01    0.351E+00
DAV:  81    -0.976476254858E+03   -0.66619E-01   -0.18298E-02  4320   0.161E-01    0.362E+00
DAV:  82    -0.976582175120E+03   -0.10592E+00   -0.64497E-02  4176   0.244E-01    0.347E+00
DAV:  83    -0.976602603147E+03   -0.20428E-01   -0.61790E-02  4368   0.285E-01    0.347E+00
DAV:  84    -0.976631029168E+03   -0.28426E-01   -0.34712E-02  4080   0.172E-01    0.444E+00
DAV:  85    -0.976617956944E+03    0.13072E-01   -0.14555E-02  4176   0.114E-01    0.387E+00
DAV:  86    -0.976621756745E+03   -0.37998E-02   -0.12758E-03  4128   0.437E-02    0.383E+00
DAV:  87    -0.976607427310E+03    0.14329E-01   -0.23043E-02  4128   0.116E-01    0.321E+00
DAV:  88    -0.976650094248E+03   -0.42667E-01   -0.23511E-02  4080   0.155E-01    0.402E+00
DAV:  89    -0.976675480613E+03   -0.25386E-01   -0.15275E-02  4080   0.117E-01    0.392E+00
DAV:  90    -0.976724838106E+03   -0.49357E-01   -0.12977E-02  4272   0.117E-01
 -----------------------------------------------------------------------------
|                                                                             |
|           W    W    AA    RRRRR   N    N  II  N    N   GGGG   !!!           |
|           W    W   A  A   R    R  NN   N  II  NN   N  G    G  !!!           |
|           W    W  A    A  R    R  N N  N  II  N N  N  G       !!!           |
|           W WW W  AAAAAA  RRRRR   N  N N  II  N  N N  G  GGG   !            |
|           WW  WW  A    A  R   R   N   NN  II  N   NN  G    G                |
|           W    W  A    A  R    R  N    N  II  N    N   GGGG   !!!           |
|                                                                             |
|     The electronic self-consistency was not achieved in the given           |
|     number of steps (NELM). The forces and other quantities evaluated       |
|     might not be reliable so examine the results carefully. If you find     |
|     spurious results, we suggest increasing NELM, if you were close to      |
|     convergence or switching to a different ALGO or adjusting the           |
|     density mixing parameters otherwise.                                    |
|                                                                             |
 -----------------------------------------------------------------------------

   3 F= -.97672484E+03 E0= -.97667072E+03  d E =-.190161E+02  mag=    42.0617
 curvature:  -0.20 expect dE=-0.262E+01 dE for cont linesearch -0.190E+01
 ZBRENT: interpolating
 opt :   0.4752  next Energy=  -979.016671 (dE=-0.213E+02)
 bond charge predicted
       N       E                     dE             d eps       ncg     rms          rms(c)
DAV:   1    -0.977848647347E+03   -0.11732E+01   -0.48303E+02  3168   0.223E+01    0.153E+01
DAV:   2    -0.981947538736E+03   -0.40989E+01   -0.45276E+01  5232   0.978E+00    0.456E+01
DAV:   3    -0.979472833944E+03    0.24747E+01   -0.15345E+01  4704   0.435E+00    0.189E+01
DAV:   4    -0.979507387136E+03   -0.34553E-01   -0.24676E+00  5280   0.207E+00    0.187E+01
DAV:   5    -0.979499730278E+03    0.76569E-02   -0.71287E-01  4704   0.118E+00    0.156E+01
DAV:   6    -0.979450281245E+03    0.49449E-01   -0.64175E-01  4752   0.126E+00    0.119E+01
DAV:   7    -0.979346293955E+03    0.10399E+00   -0.74168E-01  4704   0.136E+00    0.796E+00
DAV:   8    -0.979440972816E+03   -0.94679E-01   -0.12214E+00  4896   0.150E+00    0.714E+00
DAV:   9    -0.979404497246E+03    0.36476E-01   -0.92970E-01  5328   0.107E+00    0.577E+00
DAV:  10    -0.979400793190E+03    0.37041E-02   -0.18473E-01  4368   0.559E-01    0.398E+00
DAV:  11    -0.979423926337E+03   -0.23133E-01   -0.18840E-01  4944   0.578E-01    0.362E+00
DAV:  12    -0.979416216313E+03    0.77100E-02   -0.14664E-01  4800   0.427E-01    0.232E+00
DAV:  13    -0.979431963205E+03   -0.15747E-01   -0.39701E-02  4656   0.301E-01    0.230E+00
DAV:  14    -0.979436057781E+03   -0.40946E-02   -0.15700E-02  4320   0.184E-01    0.258E+00
DAV:  15    -0.979434810298E+03    0.12475E-02   -0.60326E-03  4896   0.112E-01    0.250E+00
DAV:  16    -0.979430359372E+03    0.44509E-02   -0.58595E-03  4608   0.103E-01    0.206E+00
DAV:  17    -0.979424444396E+03    0.59150E-02   -0.18489E-02  4464   0.177E-01    0.164E+00
DAV:  18    -0.979417847685E+03    0.65967E-02   -0.19779E-02  4416   0.154E-01    0.134E+00
DAV:  19    -0.979421965250E+03   -0.41176E-02   -0.11767E-02  4560   0.138E-01    0.130E+00
DAV:  20    -0.979424385056E+03   -0.24198E-02   -0.53083E-03  4368   0.894E-02    0.128E+00
DAV:  21    -0.979425796754E+03   -0.14117E-02   -0.29272E-03  4272   0.532E-02    0.135E+00
DAV:  22    -0.979423615535E+03    0.21812E-02   -0.10402E-02  4032   0.758E-02    0.172E+00
DAV:  23    -0.979422855829E+03    0.75971E-03   -0.28271E-03  4224   0.461E-02    0.195E+00
DAV:  24    -0.979419644457E+03    0.32114E-02   -0.17715E-03  4368   0.446E-02    0.153E+00
DAV:  25    -0.979419380857E+03    0.26360E-03   -0.29969E-03  4176   0.511E-02    0.112E+00
DAV:  26    -0.979423296104E+03   -0.39152E-02   -0.31525E-03  3984   0.554E-02    0.117E+00
DAV:  27    -0.979420885033E+03    0.24111E-02   -0.15793E-03  4272   0.530E-02    0.115E+00
DAV:  28    -0.979423294692E+03   -0.24097E-02   -0.17061E-03  4320   0.418E-02    0.116E+00
DAV:  29    -0.979428209303E+03   -0.49146E-02   -0.88788E-03  4272   0.891E-02    0.105E+00
DAV:  30    -0.979437095977E+03   -0.88867E-02   -0.62156E-02  4176   0.216E-01    0.928E-01
DAV:  31    -0.979443204178E+03   -0.61082E-02   -0.31448E-02  4608   0.182E-01    0.805E-01
DAV:  32    -0.979441268377E+03    0.19358E-02   -0.82761E-03  4320   0.115E-01    0.596E-01
DAV:  33    -0.979441568510E+03   -0.30013E-03   -0.23305E-03  4272   0.631E-02    0.795E-01
DAV:  34    -0.979444490230E+03   -0.29217E-02   -0.18216E-03  4272   0.524E-02    0.594E-01
DAV:  35    -0.979446320014E+03   -0.18298E-02   -0.44317E-04  4032   0.293E-02    0.535E-01
DAV:  36    -0.979455077175E+03   -0.87572E-02   -0.87819E-03  4416   0.829E-02    0.550E-01
DAV:  37    -0.979459376313E+03   -0.42991E-02   -0.25414E-03  4464   0.544E-02    0.459E-01
DAV:  38    -0.979467358776E+03   -0.79825E-02   -0.64242E-03  4368   0.687E-02    0.409E-01
DAV:  39    -0.979473479809E+03   -0.61210E-02   -0.56561E-03  4224   0.697E-02    0.381E-01
DAV:  40    -0.979476710022E+03   -0.32302E-02   -0.17900E-03  4560   0.464E-02    0.291E-01
DAV:  41    -0.979481433332E+03   -0.47233E-02   -0.59127E-03  4128   0.661E-02    0.381E-01
DAV:  42    -0.979483274244E+03   -0.18409E-02   -0.17862E-03  4512   0.480E-02    0.239E-01
DAV:  43    -0.979485453606E+03   -0.21794E-02   -0.34523E-03  4176   0.521E-02    0.231E-01
DAV:  44    -0.979486234825E+03   -0.78122E-03   -0.19651E-03  4368   0.404E-02    0.194E-01
DAV:  45    -0.979486662995E+03   -0.42817E-03   -0.14630E-03  4416   0.291E-02    0.268E-01
DAV:  46    -0.979486680029E+03   -0.17034E-04   -0.10228E-04  4032   0.146E-02    0.268E-01
DAV:  47    -0.979486706627E+03   -0.26599E-04   -0.55335E-05  4800   0.799E-03    0.211E-01
DAV:  48    -0.979487065695E+03   -0.35907E-03   -0.48785E-04  4080   0.206E-02    0.560E-01
DAV:  49    -0.979486769729E+03    0.29597E-03   -0.11156E-04  3936   0.172E-02    0.540E-01
DAV:  50    -0.979486643836E+03    0.12589E-03   -0.19268E-05  4128   0.666E-03    0.496E-01
DAV:  51    -0.979486686026E+03   -0.42190E-04   -0.47002E-06  3504   0.303E-03    0.492E-01
DAV:  52    -0.979486527299E+03    0.15873E-03   -0.17614E-05  4416   0.557E-03    0.382E-01
DAV:  53    -0.979486961650E+03   -0.43435E-03   -0.73680E-04  3984   0.236E-02    0.544E-01
DAV:  54    -0.979486962391E+03   -0.74078E-06   -0.57302E-04  4128   0.192E-02    0.666E-01
DAV:  55    -0.979486538617E+03    0.42377E-03   -0.84181E-04  3840   0.235E-02    0.559E-01
DAV:  56    -0.979487049618E+03   -0.51100E-03   -0.28586E-04  4224   0.150E-02    0.709E-01
DAV:  57    -0.979486730142E+03    0.31948E-03   -0.10535E-03  3984   0.214E-02    0.584E-01
DAV:  58    -0.979486955411E+03   -0.22527E-03   -0.66248E-04  4128   0.205E-02    0.565E-01
DAV:  59    -0.979486951485E+03    0.39254E-05   -0.13909E-03  4128   0.211E-02    0.565E-01
DAV:  60    -0.979486906356E+03    0.45129E-04   -0.16079E-03  4176   0.212E-02    0.595E-01
DAV:  61    -0.979486945726E+03   -0.39370E-04   -0.67949E-05  3552   0.117E-02    0.601E-01
DAV:  62    -0.979486834284E+03    0.11144E-03   -0.66009E-04  3936   0.234E-02    0.441E-01
DAV:  63    -0.979487244667E+03   -0.41038E-03   -0.23214E-04  4176   0.165E-02    0.552E-01
DAV:  64    -0.979487154949E+03    0.89718E-04   -0.24483E-03  3936   0.309E-02    0.531E-01
DAV:  65    -0.979487196429E+03   -0.41480E-04   -0.10433E-03  4176   0.272E-02    0.381E-01
DAV:  66    -0.979487469836E+03   -0.27341E-03   -0.10157E-03  4320   0.242E-02    0.295E-01
DAV:  67    -0.979487580958E+03   -0.11112E-03   -0.11686E-03  4176   0.236E-02    0.132E-01
DAV:  68    -0.979487836873E+03   -0.25592E-03   -0.57091E-04  4128   0.201E-02    0.125E-01
DAV:  69    -0.979487890792E+03   -0.53918E-04   -0.84203E-05  3936   0.120E-02    0.534E-02
DAV:  70    -0.979488012386E+03   -0.12159E-03   -0.13181E-04  3936   0.112E-02    0.509E-02
DAV:  71    -0.979488022116E+03   -0.97306E-05   -0.14030E-04  4176   0.104E-02    0.569E-02
DAV:  72    -0.979488025863E+03   -0.37468E-05   -0.64617E-05  4560   0.774E-03    0.508E-02
DAV:  73    -0.979488039117E+03   -0.13254E-04   -0.34603E-05  4176   0.530E-03    0.468E-02
DAV:  74    -0.979488055831E+03   -0.16714E-04   -0.20786E-05  4128   0.386E-03    0.357E-02
DAV:  75    -0.979488095065E+03   -0.39233E-04   -0.12223E-05  3168   0.277E-03    0.301E-02
DAV:  76    -0.979488113457E+03   -0.18392E-04   -0.80331E-06  2880   0.221E-03    0.288E-02
DAV:  77    -0.979488115094E+03   -0.16374E-05   -0.34725E-05  3120   0.392E-03    0.209E-02
DAV:  78    -0.979488129200E+03   -0.14106E-04   -0.14363E-05  2976   0.342E-03    0.196E-02
DAV:  79    -0.979488138437E+03   -0.92364E-05   -0.21548E-05  3072   0.297E-03    0.164E-02
DAV:  80    -0.979488161728E+03   -0.23291E-04   -0.76650E-05  4080   0.614E-03    0.152E-02
DAV:  81    -0.979488123951E+03    0.37777E-04   -0.15924E-04  4128   0.886E-03    0.168E-02
DAV:  82    -0.979488118267E+03    0.56834E-05   -0.18154E-04  4272   0.840E-03    0.263E-02
DAV:  83    -0.979488121978E+03   -0.37107E-05   -0.39403E-05  3936   0.486E-03    0.247E-02
DAV:  84    -0.979488123685E+03   -0.17076E-05   -0.19561E-05  3792   0.314E-03    0.240E-02
DAV:  85    -0.979488138919E+03   -0.15234E-04   -0.25637E-06  2688   0.199E-03    0.194E-02
DAV:  86    -0.979488142753E+03   -0.38334E-05   -0.56857E-06  2592   0.213E-03    0.981E-03
DAV:  87    -0.979488151210E+03   -0.84578E-05   -0.50526E-05  3456   0.452E-03    0.189E-02
DAV:  88    -0.979488149448E+03    0.17622E-05   -0.82914E-06  3408   0.259E-03    0.181E-02
DAV:  89    -0.979488154586E+03   -0.51382E-05   -0.28346E-05  3024   0.372E-03    0.260E-02
DAV:  90    -0.979488150553E+03    0.40334E-05   -0.47142E-05  3648   0.402E-03
 -----------------------------------------------------------------------------
|                                                                             |
|           W    W    AA    RRRRR   N    N  II  N    N   GGGG   !!!           |
|           W    W   A  A   R    R  NN   N  II  NN   N  G    G  !!!           |
|           W    W  A    A  R    R  N N  N  II  N N  N  G       !!!           |
|           W WW W  AAAAAA  RRRRR   N  N N  II  N  N N  G  GGG   !            |
|           WW  WW  A    A  R   R   N   NN  II  N   NN  G    G                |
|           W    W  A    A  R    R  N    N  II  N    N   GGGG   !!!           |
|                                                                             |
|     The electronic self-consistency was not achieved in the given           |
|     number of steps (NELM). The forces and other quantities evaluated       |
|     might not be reliable so examine the results carefully. If you find     |
|     spurious results, we suggest increasing NELM, if you were close to      |
|     convergence or switching to a different ALGO or adjusting the           |
|     density mixing parameters otherwise.                                    |
|                                                                             |
 -----------------------------------------------------------------------------

   4 F= -.97948815E+03 E0= -.97945588E+03  d E =-.217794E+02  mag=    41.8751
 curvature:  -0.24 expect dE=-0.213E+01 dE for cont linesearch -0.178E-01
 ZBRENT: interpolating
 opt :   0.4953  next Energy=  -979.507699 (dE=-0.218E+02)
 bond charge predicted
       N       E                     dE             d eps       ncg     rms          rms(c)
DAV:   1    -0.979497142574E+03   -0.89880E-02   -0.42121E+00  3072   0.204E+00    0.190E+00
DAV:   2    -0.979537033080E+03   -0.39891E-01   -0.33746E-01  5328   0.908E-01    0.614E+00
DAV:   3    -0.979500735640E+03    0.36297E-01   -0.88055E-02  4560   0.469E-01    0.209E+00
DAV:   4    -0.979499923299E+03    0.81234E-03   -0.31834E-02  5184   0.232E-01    0.177E+00
DAV:   5    -0.979493193852E+03    0.67294E-02   -0.19721E-02  4944   0.209E-01    0.123E+00
DAV:   6    -0.979483245231E+03    0.99486E-02   -0.21532E-02  4992   0.228E-01    0.161E+00
DAV:   7    -0.979482165283E+03    0.10799E-02   -0.20682E-02  4848   0.180E-01    0.106E+00
DAV:   8    -0.979482772895E+03   -0.60761E-03   -0.15568E-02  5232   0.134E-01    0.544E-01
DAV:   9    -0.979484046212E+03   -0.12733E-02   -0.21356E-03  4368   0.664E-02    0.261E-01
DAV:  10    -0.979486459436E+03   -0.24132E-02   -0.11554E-03  4752   0.467E-02    0.396E-01
DAV:  11    -0.979489691361E+03   -0.32319E-02   -0.51432E-04  4560   0.317E-02    0.260E-01
DAV:  12    -0.979492310814E+03   -0.26195E-02   -0.38596E-04  4464   0.277E-02    0.239E-01
DAV:  13    -0.979494670064E+03   -0.23592E-02   -0.28109E-04  4656   0.227E-02    0.170E-01
DAV:  14    -0.979497495336E+03   -0.28253E-02   -0.37469E-04  4608   0.226E-02    0.154E-01
DAV:  15    -0.979498894646E+03   -0.13993E-02   -0.17972E-04  4848   0.193E-02    0.158E-01
DAV:  16    -0.979500592579E+03   -0.16979E-02   -0.17129E-04  4608   0.170E-02    0.115E-01
DAV:  17    -0.979503149124E+03   -0.25565E-02   -0.45885E-04  4368   0.218E-02    0.113E-01
DAV:  18    -0.979505158949E+03   -0.20098E-02   -0.43484E-04  4368   0.229E-02    0.873E-02
DAV:  19    -0.979506216848E+03   -0.10579E-02   -0.23002E-04  4608   0.167E-02    0.590E-02
DAV:  20    -0.979506808780E+03   -0.59193E-03   -0.10775E-04  4368   0.112E-02    0.484E-02
DAV:  21    -0.979507102423E+03   -0.29364E-03   -0.36547E-05  4608   0.738E-03    0.442E-02
DAV:  22    -0.979507353656E+03   -0.25123E-03   -0.30993E-05  4320   0.594E-03    0.386E-02
DAV:  23    -0.979507641207E+03   -0.28755E-03   -0.50859E-05  4320   0.712E-03    0.210E-02
DAV:  24    -0.979507889993E+03   -0.24879E-03   -0.50294E-05  4224   0.690E-03    0.174E-02
DAV:  25    -0.979507988642E+03   -0.98649E-04   -0.16798E-05  4176   0.425E-03    0.149E-02
DAV:  26    -0.979508057110E+03   -0.68468E-04   -0.10570E-05  3792   0.290E-03    0.146E-02
DAV:  27    -0.979508067188E+03   -0.10078E-04   -0.13876E-06  2592   0.157E-03    0.133E-02
DAV:  28    -0.979508073370E+03   -0.61820E-05   -0.78180E-07  2016   0.112E-03    0.132E-02
DAV:  29    -0.979508058473E+03    0.14897E-04   -0.15081E-06  2064   0.111E-03    0.132E-02
DAV:  30    -0.979508061968E+03   -0.34942E-05   -0.19257E-07  1872   0.616E-04    0.132E-02
DAV:  31    -0.979508070581E+03   -0.86132E-05   -0.36171E-06  2496   0.204E-03    0.119E-02
DAV:  32    -0.979508100396E+03   -0.29815E-04   -0.78816E-05  3648   0.643E-03    0.107E-02
DAV:  33    -0.979508149110E+03   -0.48714E-04   -0.38983E-05  3792   0.444E-03    0.734E-03
DAV:  34    -0.979508159937E+03   -0.10827E-04   -0.74541E-06  2784   0.214E-03    0.614E-03
DAV:  35    -0.979508162333E+03   -0.23962E-05   -0.58918E-07  1920   0.111E-03    0.599E-03
DAV:  36    -0.979508159654E+03    0.26786E-05   -0.80835E-07  1920   0.944E-04    0.623E-03
DAV:  37    -0.979508160493E+03   -0.83933E-06   -0.90236E-08  1824   0.512E-04
   5 F= -.97950816E+03 E0= -.97947710E+03  d E =-.217995E+02  mag=    41.8219
 curvature:  -0.26 expect dE=-0.253E+01 dE for cont linesearch -0.363E-04
 trial: gam= 0.20312 g(F)=  0.968E+01 g(S)=  0.000E+00 ort = 0.811E-01 (trialstep = 0.899E+00)
 search vector abs. value=  0.117E+02
 bond charge predicted
       N       E                     dE             d eps       ncg     rms          rms(c)
DAV:   1    -0.975993871818E+03    0.35143E+01   -0.23818E+03  3168   0.552E+01    0.289E+01
DAV:   2    -0.989058771987E+03   -0.13065E+02   -0.14287E+02  4992   0.178E+01    0.653E+01
DAV:   3    -0.983721720940E+03    0.53371E+01   -0.33011E+01  4752   0.739E+00    0.212E+01
DAV:   4    -0.983138968153E+03    0.58275E+00   -0.12092E+01  5136   0.421E+00    0.164E+01
DAV:   5    -0.982892333912E+03    0.24663E+00   -0.68237E+00  5328   0.335E+00    0.144E+01
DAV:   6    -0.982906310950E+03   -0.13977E-01   -0.58473E+00  4992   0.306E+00    0.142E+01
DAV:   7    -0.982699480489E+03    0.20683E+00   -0.36087E+00  4992   0.237E+00    0.572E+00
DAV:   8    -0.982799400459E+03   -0.99920E-01   -0.10153E+00  4752   0.142E+00    0.509E+00
DAV:   9    -0.982926296499E+03   -0.12690E+00   -0.31958E-01  4656   0.699E-01    0.591E+00
DAV:  10    -0.982939605841E+03   -0.13309E-01   -0.43801E-02  4704   0.255E-01    0.578E+00
DAV:  11    -0.982941528516E+03   -0.19227E-02   -0.37555E-02  5184   0.206E-01    0.526E+00
DAV:  12    -0.983022448818E+03   -0.80920E-01   -0.12818E-01  4992   0.316E-01    0.698E+00
DAV:  13    -0.983019179041E+03    0.32698E-02   -0.21680E-02  4560   0.180E-01    0.563E+00
DAV:  14    -0.983107735168E+03   -0.88556E-01   -0.16656E-01  4416   0.459E-01    0.508E+00
DAV:  15    -0.983163417262E+03   -0.55682E-01   -0.13367E-01  4656   0.319E-01    0.457E+00
DAV:  16    -0.983171576633E+03   -0.81594E-02   -0.16394E-02  4320   0.155E-01    0.452E+00
DAV:  17    -0.983164625364E+03    0.69513E-02   -0.68104E-03  4752   0.996E-02    0.476E+00
DAV:  18    -0.983177199821E+03   -0.12574E-01   -0.38160E-03  4368   0.652E-02    0.475E+00
DAV:  19    -0.983205426338E+03   -0.28227E-01   -0.12229E-02  4416   0.911E-02    0.471E+00
DAV:  20    -0.983204996798E+03    0.42954E-03   -0.73757E-04  4272   0.380E-02    0.471E+00
DAV:  21    -0.983204994157E+03    0.26403E-05   -0.97971E-05  6000   0.109E-02    0.471E+00
DAV:  22    -0.983209470760E+03   -0.44766E-02   -0.11733E-02  4272   0.138E-01    0.458E+00
DAV:  23    -0.983221197695E+03   -0.11727E-01   -0.19207E-02  4320   0.167E-01    0.457E+00
DAV:  24    -0.983287606185E+03   -0.66408E-01   -0.94715E-02  4080   0.348E-01    0.496E+00
DAV:  25    -0.983354827447E+03   -0.67221E-01   -0.13325E-01  4368   0.369E-01    0.613E+00
DAV:  26    -0.983390960077E+03   -0.36133E-01   -0.58103E-02  4416   0.250E-01    0.745E+00
DAV:  27    -0.983377513770E+03    0.13446E-01   -0.23741E-02  4320   0.166E-01    0.811E+00
DAV:  28    -0.983388087364E+03   -0.10574E-01   -0.50934E-03  4464   0.868E-02    0.795E+00
DAV:  29    -0.983403084855E+03   -0.14997E-01   -0.32304E-03  4368   0.647E-02    0.821E+00
DAV:  30    -0.983429107638E+03   -0.26023E-01   -0.70587E-02  4320   0.257E-01    0.831E+00
DAV:  31    -0.983474453558E+03   -0.45346E-01   -0.94789E-02  4176   0.283E-01    0.918E+00
DAV:  32    -0.983483764520E+03   -0.93110E-02   -0.59580E-02  4416   0.229E-01    0.101E+01
DAV:  33    -0.983527614135E+03   -0.43850E-01   -0.42874E-02  4416   0.186E-01    0.113E+01
DAV:  34    -0.983522350313E+03    0.52638E-02   -0.39484E-03  4272   0.827E-02    0.111E+01
DAV:  35    -0.983524887157E+03   -0.25368E-02   -0.48150E-02  4224   0.207E-01    0.105E+01
DAV:  36    -0.983549784171E+03   -0.24897E-01   -0.85612E-02  4416   0.257E-01    0.918E+00
DAV:  37    -0.983543971412E+03    0.58128E-02   -0.68811E-02  4272   0.231E-01    0.905E+00
DAV:  38    -0.983550908355E+03   -0.69369E-02   -0.26694E-02  4032   0.175E-01    0.942E+00
DAV:  39    -0.983549867772E+03    0.10406E-02   -0.66859E-02  4176   0.229E-01    0.107E+01
DAV:  40    -0.983556371907E+03   -0.65041E-02   -0.90868E-03  4512   0.103E-01    0.113E+01
DAV:  41    -0.983577047945E+03   -0.20676E-01   -0.52580E-02  3792   0.205E-01    0.904E+00
DAV:  42    -0.983628455305E+03   -0.51407E-01   -0.39165E-01  4032   0.696E-01    0.476E+00
DAV:  43    -0.983666079788E+03   -0.37624E-01   -0.32341E-01  4320   0.536E-01    0.427E+00
DAV:  44    -0.983690248552E+03   -0.24169E-01   -0.20426E-01  4368   0.349E-01    0.666E+00
DAV:  45    -0.983692658159E+03   -0.24096E-02   -0.84815E-03  4080   0.138E-01    0.649E+00
DAV:  46    -0.983689956004E+03    0.27022E-02   -0.26415E-03  5376   0.518E-02    0.662E+00
DAV:  47    -0.983693246835E+03   -0.32908E-02   -0.95438E-02  3936   0.274E-01    0.584E+00
DAV:  48    -0.983786578069E+03   -0.93331E-01   -0.54246E-02  4512   0.221E-01    0.549E+00
DAV:  49    -0.983878269590E+03   -0.91692E-01   -0.41758E-02  4464   0.182E-01    0.562E+00
DAV:  50    -0.983893613961E+03   -0.15344E-01   -0.14441E-02  4320   0.110E-01    0.594E+00
DAV:  51    -0.983894580264E+03   -0.96630E-03   -0.82334E-04  4272   0.402E-02    0.598E+00
DAV:  52    -0.983879511881E+03    0.15068E-01   -0.60282E-02  4128   0.214E-01    0.683E+00
DAV:  53    -0.983893508300E+03   -0.13996E-01   -0.22263E-02  4320   0.174E-01    0.712E+00
DAV:  54    -0.983881724012E+03    0.11784E-01   -0.13470E-02  4080   0.113E-01    0.661E+00
DAV:  55    -0.983882710801E+03   -0.98679E-03   -0.20422E-03  4416   0.493E-02    0.655E+00
DAV:  56    -0.983884991630E+03   -0.22808E-02   -0.86063E-02  3936   0.263E-01    0.613E+00
DAV:  57    -0.983890171193E+03   -0.51796E-02   -0.52476E-02  4560   0.240E-01    0.517E+00
DAV:  58    -0.983878580704E+03    0.11590E-01   -0.13864E-01  3984   0.337E-01    0.682E+00
DAV:  59    -0.983884185290E+03   -0.56046E-02   -0.99069E-03  3984   0.148E-01    0.671E+00
DAV:  60    -0.983884155617E+03    0.29673E-04   -0.73547E-04  5664   0.327E-02    0.672E+00
DAV:  61    -0.983880516091E+03    0.36395E-02   -0.21902E-04  4512   0.191E-02    0.673E+00
DAV:  62    -0.983866072803E+03    0.14443E-01   -0.25781E-02  4272   0.161E-01    0.695E+00
DAV:  63    -0.983866473100E+03   -0.40030E-03   -0.21324E-03  4080   0.617E-02    0.716E+00
DAV:  64    -0.983869701298E+03   -0.32282E-02   -0.10738E-03  4608   0.348E-02    0.752E+00
DAV:  65    -0.983869205395E+03    0.49590E-03   -0.10598E-04  4176   0.144E-02    0.754E+00
DAV:  66    -0.983868335143E+03    0.87025E-03   -0.19149E-04  4416   0.162E-02    0.761E+00
DAV:  67    -0.983858834768E+03    0.95004E-02   -0.79400E-03  4272   0.966E-02    0.677E+00
DAV:  68    -0.983841274199E+03    0.17561E-01   -0.30990E-03  4704   0.899E-02    0.663E+00
DAV:  69    -0.983840225875E+03    0.10483E-02   -0.64283E-04  3936   0.321E-02    0.668E+00
DAV:  70    -0.983841557238E+03   -0.13314E-02   -0.33810E-04  4368   0.221E-02    0.661E+00
DAV:  71    -0.983841667586E+03   -0.11035E-03   -0.44292E-05  4032   0.948E-03    0.661E+00
DAV:  72    -0.983826637758E+03    0.15030E-01   -0.38114E-03  4368   0.764E-02    0.639E+00
DAV:  73    -0.983818366210E+03    0.82715E-02   -0.90439E-04  4560   0.469E-02    0.643E+00
DAV:  74    -0.983832018553E+03   -0.13652E-01   -0.96111E-03  4128   0.118E-01    0.722E+00
DAV:  75    -0.983845499580E+03   -0.13481E-01   -0.65503E-03  4608   0.936E-02    0.753E+00
DAV:  76    -0.983849723794E+03   -0.42242E-02   -0.94492E-04  4176   0.404E-02    0.751E+00
DAV:  77    -0.983858895281E+03   -0.91715E-02   -0.46861E-03  4368   0.793E-02    0.802E+00
DAV:  78    -0.983863642039E+03   -0.47468E-02   -0.26495E-03  4992   0.786E-02    0.791E+00
DAV:  79    -0.983876049842E+03   -0.12408E-01   -0.12390E-03  4224   0.409E-02    0.780E+00
DAV:  80    -0.983908970237E+03   -0.32920E-01   -0.39293E-03  4320   0.694E-02    0.765E+00
DAV:  81    -0.983956597297E+03   -0.47627E-01   -0.99299E-03  4320   0.103E-01    0.768E+00
DAV:  82    -0.983946066194E+03    0.10531E-01   -0.10294E-01  4224   0.347E-01    0.522E+00
DAV:  83    -0.983935063466E+03    0.11003E-01   -0.38880E-02  4848   0.234E-01    0.644E+00
DAV:  84    -0.983947370213E+03   -0.12307E-01   -0.22263E-02  4224   0.141E-01    0.665E+00
DAV:  85    -0.983943324045E+03    0.40462E-02   -0.53010E-03  4368   0.723E-02    0.693E+00
DAV:  86    -0.983937872215E+03    0.54518E-02   -0.30741E-03  4608   0.462E-02    0.714E+00
DAV:  87    -0.983926677454E+03    0.11195E-01   -0.82511E-02  4320   0.249E-01    0.596E+00
DAV:  88    -0.983931135422E+03   -0.44580E-02   -0.15575E-02  5040   0.179E-01    0.624E+00
DAV:  89    -0.983934207971E+03   -0.30725E-02   -0.36224E-03  4320   0.805E-02    0.626E+00
DAV:  90    -0.983932282072E+03    0.19259E-02   -0.57694E-04  4512   0.329E-02
 -----------------------------------------------------------------------------
|                                                                             |
|           W    W    AA    RRRRR   N    N  II  N    N   GGGG   !!!           |
|           W    W   A  A   R    R  NN   N  II  NN   N  G    G  !!!           |
|           W    W  A    A  R    R  N N  N  II  N N  N  G       !!!           |
|           W WW W  AAAAAA  RRRRR   N  N N  II  N  N N  G  GGG   !            |
|           WW  WW  A    A  R   R   N   NN  II  N   NN  G    G                |
|           W    W  A    A  R    R  N    N  II  N    N   GGGG   !!!           |
|                                                                             |
|     The electronic self-consistency was not achieved in the given           |
|     number of steps (NELM). The forces and other quantities evaluated       |
|     might not be reliable so examine the results carefully. If you find     |
|     spurious results, we suggest increasing NELM, if you were close to      |
|     convergence or switching to a different ALGO or adjusting the           |
|     density mixing parameters otherwise.                                    |
|                                                                             |
 -----------------------------------------------------------------------------

   6 F= -.98393228E+03 E0= -.98392142E+03  d E =-.442412E+01  mag=    38.7304
 trial-energy change:   -4.424122  1 .order   -4.445360   -8.719916   -0.170804
 step:   0.9173(harm=  0.9170)  dis= 0.19529  next Energy=  -983.934015 (dE=-0.443E+01)
 bond charge predicted
       N       E                     dE             d eps       ncg     rms          rms(c)
DAV:   1    -0.983943476398E+03   -0.92684E-02   -0.99593E-01  3072   0.115E+00    0.627E+00
DAV:   2    -0.984297524491E+03   -0.35405E+00   -0.33863E+00  5040   0.133E+00    0.140E+01
DAV:   3    -0.984088625501E+03    0.20890E+00   -0.10741E+00  4992   0.110E+00    0.733E+00
DAV:   4    -0.984127249506E+03   -0.38624E-01   -0.23882E-01  4752   0.572E-01    0.673E+00
DAV:   5    -0.984156281168E+03   -0.29032E-01   -0.38299E-01  5136   0.607E-01    0.739E+00
DAV:   6    -0.984170390772E+03   -0.14110E-01   -0.84525E-02  4752   0.382E-01    0.491E+00
DAV:   7    -0.984174856822E+03   -0.44660E-02   -0.23023E-01  4656   0.508E-01    0.440E+00
DAV:   8    -0.984195364568E+03   -0.20508E-01   -0.10978E-01  4656   0.455E-01    0.266E+00
DAV:   9    -0.984192110152E+03    0.32544E-02   -0.10024E-01  4800   0.384E-01    0.220E+00
DAV:  10    -0.984196771739E+03   -0.46616E-02   -0.14246E-01  4368   0.331E-01    0.765E+00
DAV:  11    -0.984176024157E+03    0.20748E-01   -0.18473E-02  4656   0.159E-01    0.943E+00
DAV:  12    -0.984167213433E+03    0.88107E-02   -0.16715E-03  4272   0.561E-02    0.909E+00
DAV:  13    -0.984147510818E+03    0.19703E-01   -0.74898E-03  4416   0.105E-01    0.850E+00
DAV:  14    -0.984152445847E+03   -0.49350E-02   -0.12384E-03  4224   0.449E-02    0.843E+00
DAV:  15    -0.984155888575E+03   -0.34427E-02   -0.31198E-04  4848   0.226E-02    0.845E+00
DAV:  16    -0.984133544055E+03    0.22345E-01   -0.16630E-02  4464   0.185E-01    0.631E+00
DAV:  17    -0.984106347255E+03    0.27197E-01   -0.50899E-02  4464   0.298E-01    0.338E+00
DAV:  18    -0.984122866635E+03   -0.16519E-01   -0.11946E-02  4320   0.140E-01    0.281E+00
DAV:  19    -0.984150216441E+03   -0.27350E-01   -0.68329E-03  4752   0.106E-01    0.267E+00
DAV:  20    -0.984186284921E+03   -0.36068E-01   -0.13307E-02  4416   0.147E-01    0.184E+00
DAV:  21    -0.984247574743E+03   -0.61290E-01   -0.51593E-02  4224   0.254E-01    0.115E+00
DAV:  22    -0.984258926645E+03   -0.11352E-01   -0.19280E-02  4656   0.177E-01    0.663E-01
DAV:  23    -0.984263641306E+03   -0.47147E-02   -0.50030E-03  4320   0.955E-02    0.694E-01
DAV:  24    -0.984267030317E+03   -0.33890E-02   -0.24285E-03  4704   0.703E-02    0.848E-01
DAV:  25    -0.984270950143E+03   -0.39198E-02   -0.35532E-03  4368   0.766E-02    0.110E+00
DAV:  26    -0.984272389519E+03   -0.14394E-02   -0.24868E-03  4512   0.645E-02    0.100E+00
DAV:  27    -0.984272354602E+03    0.34917E-04   -0.12279E-03  4464   0.527E-02    0.685E-01
DAV:  28    -0.984272815097E+03   -0.46050E-03   -0.10269E-03  4368   0.414E-02    0.590E-01
DAV:  29    -0.984273313901E+03   -0.49880E-03   -0.91202E-04  4224   0.370E-02    0.672E-01
DAV:  30    -0.984274809417E+03   -0.14955E-02   -0.69670E-04  4368   0.394E-02    0.258E-01
DAV:  31    -0.984275750328E+03   -0.94091E-03   -0.36251E-04  4512   0.241E-02    0.142E-01
DAV:  32    -0.984276129166E+03   -0.37884E-03   -0.62135E-05  4128   0.116E-02    0.145E-01
DAV:  33    -0.984276398715E+03   -0.26955E-03   -0.24090E-05  4464   0.647E-03    0.137E-01
DAV:  34    -0.984277237679E+03   -0.83896E-03   -0.70154E-05  4272   0.922E-03    0.143E-01
DAV:  35    -0.984278105623E+03   -0.86794E-03   -0.68226E-05  4224   0.952E-03    0.133E-01
DAV:  36    -0.984278992746E+03   -0.88712E-03   -0.81043E-05  4320   0.100E-02    0.125E-01
DAV:  37    -0.984279898634E+03   -0.90589E-03   -0.10132E-04  4224   0.114E-02    0.150E-01
DAV:  38    -0.984280577905E+03   -0.67927E-03   -0.64647E-05  4320   0.923E-03    0.115E-01
DAV:  39    -0.984280888419E+03   -0.31051E-03   -0.24127E-05  4512   0.647E-03    0.625E-02
DAV:  40    -0.984281183432E+03   -0.29501E-03   -0.19032E-05  4368   0.519E-03    0.177E-02
DAV:  41    -0.984281339431E+03   -0.15600E-03   -0.68029E-06  3792   0.333E-03    0.149E-02
DAV:  42    -0.984281469646E+03   -0.13022E-03   -0.25439E-06  2784   0.215E-03    0.126E-02
DAV:  43    -0.984281557270E+03   -0.87624E-04   -0.15626E-06  2304   0.177E-03    0.881E-03
DAV:  44    -0.984281682275E+03   -0.12500E-03   -0.13324E-06  2304   0.158E-03    0.940E-03
DAV:  45    -0.984281853213E+03   -0.17094E-03   -0.27959E-06  2976   0.184E-03    0.804E-03
DAV:  46    -0.984282019834E+03   -0.16662E-03   -0.22759E-06  2736   0.170E-03    0.532E-03
DAV:  47    -0.984282111848E+03   -0.92014E-04   -0.13843E-06  2400   0.160E-03    0.393E-03
DAV:  48    -0.984282202895E+03   -0.91047E-04   -0.17044E-06  2880   0.149E-03    0.362E-03
DAV:  49    -0.984282241338E+03   -0.38443E-04   -0.46628E-07  1968   0.115E-03    0.254E-03
DAV:  50    -0.984282272412E+03   -0.31075E-04   -0.49442E-07  1968   0.103E-03    0.282E-03
DAV:  51    -0.984282293896E+03   -0.21483E-04   -0.50612E-07  2064   0.107E-03    0.202E-03
DAV:  52    -0.984282297540E+03   -0.36440E-05   -0.17867E-07  1824   0.817E-04    0.178E-03
DAV:  53    -0.984282304607E+03   -0.70667E-05   -0.14469E-07  1872   0.609E-04    0.162E-03
DAV:  54    -0.984282307609E+03   -0.30024E-05   -0.83164E-08  1824   0.579E-04    0.127E-03
DAV:  55    -0.984282309609E+03   -0.19996E-05   -0.61076E-08  1824   0.424E-04    0.869E-04
DAV:  56    -0.984282314557E+03   -0.49485E-05   -0.10161E-07  1872   0.450E-04    0.813E-04
DAV:  57    -0.984282315851E+03   -0.12940E-05   -0.66208E-08  1824   0.481E-04    0.805E-04
DAV:  58    -0.984282316171E+03   -0.31969E-06   -0.52705E-08  1824   0.365E-04
   7 F= -.98428232E+03 E0= -.98426377E+03  d E =-.477416E+01  mag=    39.3503
 curvature:  -0.55 expect dE=-0.837E+01 dE for cont linesearch -0.789E-03
 trial: gam= 1.49214 g(F)=  0.152E+02 g(S)=  0.000E+00 ort = 0.129E+00 (trialstep = 0.254E+00)
 search vector abs. value=  0.415E+02
 bond charge predicted
       N       E                     dE             d eps       ncg     rms          rms(c)
DAV:   1    -0.985387146191E+03   -0.11048E+01   -0.69273E+02  3072   0.300E+01    0.143E+01
DAV:   2    -0.988446863745E+03   -0.30597E+01   -0.27438E+01  4512   0.794E+00    0.228E+01
DAV:   3    -0.987385093355E+03    0.10618E+01   -0.17127E+01  5184   0.445E+00    0.161E+01
DAV:   4    -0.987198957164E+03    0.18614E+00   -0.13149E+00  4608   0.154E+00    0.129E+01
DAV:   5    -0.986922936378E+03    0.27602E+00   -0.19972E+00  4848   0.207E+00    0.126E+01
DAV:   6    -0.986741087135E+03    0.18185E+00   -0.49661E-01  4224   0.101E+00    0.919E+00
DAV:   7    -0.986728534677E+03    0.12552E-01   -0.10183E+00  4848   0.110E+00    0.102E+01
DAV:   8    -0.986610075454E+03    0.11846E+00   -0.51722E-01  5088   0.980E-01    0.495E+00
DAV:   9    -0.986656847314E+03   -0.46772E-01   -0.51378E-01  4704   0.919E-01    0.609E+00
DAV:  10    -0.986654601626E+03    0.22457E-02   -0.18991E-01  4752   0.571E-01    0.350E+00
DAV:  11    -0.986714646795E+03   -0.60045E-01   -0.64196E-02  5184   0.393E-01    0.274E+00
DAV:  12    -0.986769494315E+03   -0.54848E-01   -0.40336E-02  4656   0.277E-01    0.235E+00
DAV:  13    -0.986822049670E+03   -0.52555E-01   -0.23012E-02  4608   0.214E-01    0.155E+00
DAV:  14    -0.986892233483E+03   -0.70184E-01   -0.32729E-02  4464   0.200E-01    0.129E+00
DAV:  15    -0.986948892211E+03   -0.56659E-01   -0.14503E-02  4368   0.144E-01    0.103E+00
DAV:  16    -0.986992649473E+03   -0.43757E-01   -0.12706E-02  4608   0.121E-01    0.905E-01
DAV:  17    -0.987013529081E+03   -0.20880E-01   -0.50423E-03  4608   0.852E-02    0.936E-01
DAV:  18    -0.987058610277E+03   -0.45081E-01   -0.12634E-02  4272   0.107E-01    0.877E-01
DAV:  19    -0.987095401707E+03   -0.36791E-01   -0.11316E-02  4416   0.108E-01    0.917E-01
DAV:  20    -0.987128480021E+03   -0.33078E-01   -0.84858E-03  4464   0.923E-02    0.796E-01
DAV:  21    -0.987181574446E+03   -0.53094E-01   -0.16442E-02  4368   0.136E-01    0.728E-01
DAV:  22    -0.987211530428E+03   -0.29956E-01   -0.63703E-03  4512   0.943E-02    0.438E-01
DAV:  23    -0.987228626423E+03   -0.17096E-01   -0.25298E-03  4464   0.699E-02    0.391E-01
DAV:  24    -0.987246187761E+03   -0.17561E-01   -0.22547E-03  4560   0.595E-02    0.291E-01
DAV:  25    -0.987258787896E+03   -0.12600E-01   -0.12132E-03  4464   0.428E-02    0.230E-01
DAV:  26    -0.987262558951E+03   -0.37711E-02   -0.47338E-04  4464   0.262E-02    0.176E-01
DAV:  27    -0.987274182854E+03   -0.11624E-01   -0.73653E-04  4272   0.322E-02    0.134E-01
DAV:  28    -0.987283627774E+03   -0.94449E-02   -0.54506E-04  4224   0.275E-02    0.905E-02
DAV:  29    -0.987290612645E+03   -0.69849E-02   -0.32771E-04  4560   0.205E-02    0.700E-02
DAV:  30    -0.987294844849E+03   -0.42322E-02   -0.13573E-04  4368   0.137E-02    0.506E-02
DAV:  31    -0.987299327284E+03   -0.44824E-02   -0.12682E-04  4320   0.130E-02    0.424E-02
DAV:  32    -0.987304158875E+03   -0.48316E-02   -0.15094E-04  3840   0.124E-02    0.284E-02
DAV:  33    -0.987306199096E+03   -0.20402E-02   -0.47630E-05  4560   0.810E-03    0.220E-02
DAV:  34    -0.987307493589E+03   -0.12945E-02   -0.21935E-05  4320   0.526E-03    0.214E-02
DAV:  35    -0.987308179195E+03   -0.68561E-03   -0.91515E-06  3648   0.371E-03    0.167E-02
DAV:  36    -0.987309353247E+03   -0.11741E-02   -0.25253E-05  4128   0.470E-03    0.167E-02
DAV:  37    -0.987310361116E+03   -0.10079E-02   -0.33986E-05  4128   0.528E-03    0.135E-02
DAV:  38    -0.987310733647E+03   -0.37253E-03   -0.90821E-06  3744   0.310E-03    0.109E-02
DAV:  39    -0.987310916542E+03   -0.18289E-03   -0.35760E-06  2784   0.224E-03    0.108E-02
DAV:  40    -0.987311064897E+03   -0.14836E-03   -0.29336E-06  2784   0.212E-03    0.101E-02
DAV:  41    -0.987311208903E+03   -0.14401E-03   -0.33271E-06  2832   0.222E-03    0.910E-03
DAV:  42    -0.987311345968E+03   -0.13707E-03   -0.41230E-06  3216   0.246E-03    0.663E-03
DAV:  43    -0.987311488006E+03   -0.14204E-03   -0.53727E-06  2976   0.230E-03    0.498E-03
DAV:  44    -0.987311526896E+03   -0.38891E-04   -0.20009E-06  2448   0.186E-03    0.394E-03
DAV:  45    -0.987311532081E+03   -0.51851E-05   -0.10945E-06  2112   0.149E-03    0.300E-03
DAV:  46    -0.987311532419E+03   -0.33742E-06   -0.44984E-07  1824   0.131E-03
   8 F= -.98731153E+03 E0= -.98730967E+03  d E =-.302922E+01  mag=    38.0238
 trial-energy change:   -3.029216  1 .order   -2.912225   -3.896457   -1.927992
 step:   0.4109(harm=  0.5019)  dis= 0.17369  next Energy=  -987.937871 (dE=-0.366E+01)
 bond charge predicted
       N       E                     dE             d eps       ncg     rms          rms(c)
DAV:   1    -0.987416275195E+03   -0.10474E+00   -0.26863E+02  3072   0.188E+01    0.533E+00
DAV:   2    -0.988306374494E+03   -0.89010E+00   -0.85203E+00  4512   0.432E+00    0.881E+00
DAV:   3    -0.988097841904E+03    0.20853E+00   -0.16060E+00  5088   0.179E+00    0.527E+00
DAV:   4    -0.988074816810E+03    0.23025E-01   -0.21697E-01  4848   0.632E-01    0.392E+00
DAV:   5    -0.988120339805E+03   -0.45523E-01   -0.23268E-01  5088   0.755E-01    0.404E+00
DAV:   6    -0.988056907414E+03    0.63432E-01   -0.27772E-01  5184   0.838E-01    0.237E+00
DAV:   7    -0.988021097622E+03    0.35810E-01   -0.13752E-01  4992   0.563E-01    0.117E+00
DAV:   8    -0.988020411709E+03    0.68591E-03   -0.40561E-02  4560   0.301E-01    0.726E-01
DAV:   9    -0.988021891811E+03   -0.14801E-02   -0.12270E-02  5088   0.172E-01    0.565E-01
DAV:  10    -0.988024048222E+03   -0.21564E-02   -0.46545E-03  4800   0.998E-02    0.439E-01
DAV:  11    -0.988027193943E+03   -0.31457E-02   -0.31811E-03  4560   0.793E-02    0.321E-01
DAV:  12    -0.988029580085E+03   -0.23861E-02   -0.19761E-03  4560   0.570E-02    0.294E-01
DAV:  13    -0.988030333014E+03   -0.75293E-03   -0.42703E-04  4416   0.292E-02    0.256E-01
DAV:  14    -0.988033111170E+03   -0.27782E-02   -0.20359E-03  4224   0.410E-02    0.350E-01
DAV:  15    -0.988032448999E+03    0.66217E-03   -0.37617E-04  4416   0.235E-02    0.373E-01
DAV:  16    -0.988033586569E+03   -0.11376E-02   -0.41130E-04  4560   0.197E-02    0.397E-01
DAV:  17    -0.988036205071E+03   -0.26185E-02   -0.25346E-03  4368   0.497E-02    0.335E-01
DAV:  18    -0.988041650492E+03   -0.54454E-02   -0.80627E-03  4320   0.768E-02    0.396E-01
DAV:  19    -0.988041084234E+03    0.56626E-03   -0.61861E-04  3696   0.332E-02    0.396E-01
DAV:  20    -0.988043119506E+03   -0.20353E-02   -0.50148E-04  5040   0.233E-02    0.372E-01
DAV:  21    -0.988046994195E+03   -0.38747E-02   -0.12626E-03  4464   0.379E-02    0.296E-01
DAV:  22    -0.988052220164E+03   -0.52260E-02   -0.20452E-03  4464   0.500E-02    0.218E-01
DAV:  23    -0.988056634549E+03   -0.44144E-02   -0.15721E-03  4368   0.415E-02    0.192E-01
DAV:  24    -0.988057973778E+03   -0.13392E-02   -0.31392E-04  4608   0.219E-02    0.177E-01
DAV:  25    -0.988059725109E+03   -0.17513E-02   -0.27296E-04  4512   0.188E-02    0.160E-01
DAV:  26    -0.988061578786E+03   -0.18537E-02   -0.37275E-04  4176   0.204E-02    0.128E-01
DAV:  27    -0.988064178135E+03   -0.25993E-02   -0.64384E-04  3888   0.257E-02    0.889E-02
DAV:  28    -0.988066343230E+03   -0.21651E-02   -0.77339E-04  4224   0.273E-02    0.736E-02
DAV:  29    -0.988067616760E+03   -0.12735E-02   -0.27687E-04  4512   0.181E-02    0.633E-02
DAV:  30    -0.988068738527E+03   -0.11218E-02   -0.28926E-04  4224   0.178E-02    0.526E-02
DAV:  31    -0.988069783230E+03   -0.10447E-02   -0.46899E-04  4128   0.229E-02    0.437E-02
DAV:  32    -0.988070214880E+03   -0.43165E-03   -0.17082E-04  4704   0.143E-02    0.430E-02
DAV:  33    -0.988070500988E+03   -0.28611E-03   -0.10731E-04  3936   0.107E-02    0.342E-02
DAV:  34    -0.988070820711E+03   -0.31972E-03   -0.21374E-04  3984   0.145E-02    0.334E-02
DAV:  35    -0.988071034299E+03   -0.21359E-03   -0.22247E-04  4080   0.151E-02    0.262E-02
DAV:  36    -0.988071129933E+03   -0.95633E-04   -0.96492E-05  4464   0.978E-03    0.234E-02
DAV:  37    -0.988071152562E+03   -0.22629E-04   -0.51891E-05  4176   0.729E-03    0.213E-02
DAV:  38    -0.988071184950E+03   -0.32389E-04   -0.28884E-05  4368   0.563E-03    0.173E-02
DAV:  39    -0.988071210901E+03   -0.25951E-04   -0.14832E-05  3936   0.413E-03    0.151E-02
DAV:  40    -0.988071212681E+03   -0.17798E-05   -0.43115E-05  3984   0.638E-03    0.106E-02
DAV:  41    -0.988071215963E+03   -0.32823E-05   -0.45297E-05  4272   0.661E-03    0.854E-03
DAV:  42    -0.988071241518E+03   -0.25555E-04   -0.12453E-05  3936   0.369E-03    0.586E-03
DAV:  43    -0.988071250171E+03   -0.86524E-05   -0.41847E-06  3264   0.231E-03    0.460E-03
DAV:  44    -0.988071258986E+03   -0.88155E-05   -0.33437E-06  2832   0.207E-03    0.484E-03
DAV:  45    -0.988071275064E+03   -0.16078E-04   -0.77413E-07  1920   0.147E-03    0.287E-03
DAV:  46    -0.988071282399E+03   -0.73355E-05   -0.90354E-07  1920   0.135E-03    0.290E-03
DAV:  47    -0.988071288039E+03   -0.56394E-05   -0.56633E-07  1920   0.130E-03    0.276E-03
DAV:  48    -0.988071293697E+03   -0.56579E-05   -0.54756E-07  2016   0.118E-03    0.247E-03
DAV:  49    -0.988071295512E+03   -0.18157E-05   -0.57800E-07  1872   0.126E-03    0.200E-03
DAV:  50    -0.988071296988E+03   -0.14760E-05   -0.28713E-07  1824   0.989E-04    0.179E-03
DAV:  51    -0.988071298038E+03   -0.10495E-05   -0.26456E-07  1824   0.913E-04    0.181E-03
DAV:  52    -0.988071299275E+03   -0.12368E-05   -0.36198E-07  1824   0.937E-04    0.148E-03
DAV:  53    -0.988071301603E+03   -0.23278E-05   -0.26054E-07  1824   0.958E-04    0.974E-04
DAV:  54    -0.988071303164E+03   -0.15616E-05   -0.33637E-07  1824   0.911E-04    0.778E-04
DAV:  55    -0.988071304645E+03   -0.14812E-05   -0.17722E-07  1824   0.882E-04    0.692E-04
DAV:  56    -0.988071305416E+03   -0.77084E-06   -0.11326E-07  1824   0.606E-04
   9 F= -.98807131E+03 E0= -.98806579E+03  d E =-.378899E+01  mag=    38.0000
 curvature:  -0.59 expect dE=-0.394E+01 dE for cont linesearch -0.520E-01
 ZBRENT: extrapolating
 opt :   0.4640  next Energy=  -988.122243 (dE=-0.384E+01)
 bond charge predicted
       N       E                     dE             d eps       ncg     rms          rms(c)
DAV:   1    -0.988050101808E+03    0.21203E-01   -0.30627E+01  3072   0.637E+00    0.168E+00
DAV:   2    -0.988146345071E+03   -0.96243E-01   -0.94208E-01  4560   0.144E+00    0.311E+00
DAV:   3    -0.988123258826E+03    0.23086E-01   -0.12245E-01  4704   0.546E-01    0.163E+00
DAV:   4    -0.988122728975E+03    0.52985E-03   -0.21926E-02  4896   0.196E-01    0.120E+00
DAV:   5    -0.988127446395E+03   -0.47174E-02   -0.22172E-02  5088   0.228E-01    0.117E+00
DAV:   6    -0.988123739085E+03    0.37073E-02   -0.28561E-02  5088   0.253E-01    0.850E-01
DAV:   7    -0.988120338609E+03    0.34005E-02   -0.15786E-02  5280   0.184E-01    0.295E-01
DAV:   8    -0.988120471590E+03   -0.13298E-03   -0.38326E-03  4416   0.878E-02    0.198E-01
DAV:   9    -0.988120533516E+03   -0.61927E-04   -0.75095E-04  4992   0.435E-02    0.160E-01
DAV:  10    -0.988120656318E+03   -0.12280E-03   -0.26148E-04  4896   0.243E-02    0.130E-01
DAV:  11    -0.988120802616E+03   -0.14630E-03   -0.17752E-04  5040   0.201E-02    0.783E-02
DAV:  12    -0.988120963003E+03   -0.16039E-03   -0.13873E-04  4656   0.180E-02    0.690E-02
DAV:  13    -0.988121037905E+03   -0.74903E-04   -0.51557E-05  4656   0.113E-02    0.530E-02
DAV:  14    -0.988121118396E+03   -0.80490E-04   -0.28038E-05  4800   0.819E-03    0.477E-02
DAV:  15    -0.988121190826E+03   -0.72430E-04   -0.15783E-05  4656   0.585E-03    0.316E-02
DAV:  16    -0.988121244202E+03   -0.53376E-04   -0.11950E-05  4416   0.508E-03    0.209E-02
DAV:  17    -0.988121278772E+03   -0.34570E-04   -0.74204E-06  4176   0.406E-03    0.107E-02
DAV:  18    -0.988121296417E+03   -0.17646E-04   -0.43847E-06  3408   0.301E-03    0.100E-02
DAV:  19    -0.988121304168E+03   -0.77511E-05   -0.24938E-06  2976   0.243E-03    0.758E-03
DAV:  20    -0.988121307452E+03   -0.32831E-05   -0.11484E-06  2400   0.191E-03    0.514E-03
DAV:  21    -0.988121309956E+03   -0.25040E-05   -0.69832E-07  2064   0.153E-03    0.414E-03
DAV:  22    -0.988121313581E+03   -0.36257E-05   -0.55861E-07  1920   0.144E-03    0.368E-03
DAV:  23    -0.988121318437E+03   -0.48556E-05   -0.81419E-07  2016   0.160E-03    0.289E-03
DAV:  24    -0.988121322481E+03   -0.40440E-05   -0.65745E-07  1920   0.157E-03    0.245E-03
DAV:  25    -0.988121326770E+03   -0.42889E-05   -0.54630E-07  1872   0.133E-03    0.210E-03
DAV:  26    -0.988121329308E+03   -0.25386E-05   -0.35862E-07  1824   0.123E-03    0.216E-03
DAV:  27    -0.988121331544E+03   -0.22355E-05   -0.24236E-07  1824   0.948E-04    0.192E-03
DAV:  28    -0.988121335148E+03   -0.36037E-05   -0.24748E-07  1824   0.928E-04    0.168E-03
DAV:  29    -0.988121341252E+03   -0.61042E-05   -0.36454E-07  1968   0.102E-03    0.145E-03
DAV:  30    -0.988121346641E+03   -0.53892E-05   -0.29453E-07  1824   0.104E-03    0.142E-03
DAV:  31    -0.988121351863E+03   -0.52219E-05   -0.30572E-07  1872   0.944E-04    0.131E-03
DAV:  32    -0.988121355584E+03   -0.37214E-05   -0.24675E-07  1824   0.971E-04    0.114E-03
DAV:  33    -0.988121358983E+03   -0.33988E-05   -0.22952E-07  1872   0.833E-04    0.105E-03
DAV:  34    -0.988121361141E+03   -0.21582E-05   -0.16504E-07  1824   0.825E-04    0.895E-04
DAV:  35    -0.988121364053E+03   -0.29118E-05   -0.19370E-07  1872   0.714E-04    0.864E-04
DAV:  36    -0.988121366281E+03   -0.22275E-05   -0.15927E-07  1824   0.786E-04    0.779E-04
DAV:  37    -0.988121367982E+03   -0.17011E-05   -0.15987E-07  1872   0.658E-04    0.765E-04
DAV:  38    -0.988121368528E+03   -0.54637E-06   -0.10763E-07  1824   0.686E-04
  10 F= -.98812137E+03 E0= -.98811628E+03  d E =-.383905E+01  mag=    38.0000
 curvature:  -0.57 expect dE=-0.431E+01 dE for cont linesearch -0.183E-04
 trial: gam= 0.31200 g(F)=  0.750E+01 g(S)=  0.000E+00 ort =-0.363E-01 (trialstep = 0.296E+00)
 search vector abs. value=  0.115E+02
 bond charge predicted
       N       E                     dE             d eps       ncg     rms          rms(c)
DAV:   1    -0.989271101358E+03   -0.11497E+01   -0.23142E+02  3072   0.172E+01    0.584E+00
DAV:   2    -0.990409451479E+03   -0.11384E+01   -0.94270E+00  4896   0.498E+00    0.123E+01
DAV:   3    -0.989809667031E+03    0.59978E+00   -0.18590E+00  5472   0.213E+00    0.414E+00
DAV:   4    -0.989798235892E+03    0.11431E-01   -0.32794E-01  4992   0.830E-01    0.324E+00
DAV:   5    -0.989804462916E+03   -0.62270E-02   -0.26020E-01  5232   0.826E-01    0.371E+00
DAV:   6    -0.989726021599E+03    0.78441E-01   -0.23317E-01  4944   0.753E-01    0.224E+00
DAV:   7    -0.989709814197E+03    0.16207E-01   -0.10845E-01  4656   0.509E-01    0.844E-01
DAV:   8    -0.989715469066E+03   -0.56549E-02   -0.32671E-02  4320   0.281E-01    0.595E-01
DAV:   9    -0.989720617858E+03   -0.51488E-02   -0.11374E-02  5568   0.162E-01    0.402E-01
DAV:  10    -0.989732144821E+03   -0.11527E-01   -0.45315E-03  4416   0.105E-01    0.291E-01
DAV:  11    -0.989748998634E+03   -0.16854E-01   -0.41336E-03  4512   0.965E-02    0.238E-01
DAV:  12    -0.989762827710E+03   -0.13829E-01   -0.23373E-03  4848   0.734E-02    0.203E-01
DAV:  13    -0.989778023534E+03   -0.15196E-01   -0.13797E-03  4512   0.539E-02    0.147E-01
DAV:  14    -0.989794433096E+03   -0.16410E-01   -0.10568E-03  4368   0.444E-02    0.110E-01
DAV:  15    -0.989810201720E+03   -0.15769E-01   -0.78274E-04  4368   0.370E-02    0.850E-02
DAV:  16    -0.989821332254E+03   -0.11131E-01   -0.41655E-04  4560   0.267E-02    0.688E-02
DAV:  17    -0.989830666055E+03   -0.93338E-02   -0.24983E-04  4464   0.205E-02    0.533E-02
DAV:  18    -0.989837183233E+03   -0.65172E-02   -0.12230E-04  4128   0.143E-02    0.410E-02
DAV:  19    -0.989842177607E+03   -0.49944E-02   -0.62654E-05  4224   0.102E-02    0.345E-02
DAV:  20    -0.989847232306E+03   -0.50547E-02   -0.52796E-05  3744   0.887E-03    0.294E-02
DAV:  21    -0.989852619724E+03   -0.53874E-02   -0.59481E-05  3840   0.865E-03    0.222E-02
DAV:  22    -0.989857247026E+03   -0.46273E-02   -0.54355E-05  3792   0.743E-03    0.165E-02
DAV:  23    -0.989859451080E+03   -0.22041E-02   -0.20511E-05  4032   0.480E-03    0.129E-02
DAV:  24    -0.989860682590E+03   -0.12315E-02   -0.10389E-05  3696   0.351E-03    0.122E-02
DAV:  25    -0.989861227377E+03   -0.54479E-03   -0.41162E-06  3168   0.263E-03    0.971E-03
DAV:  26    -0.989861982936E+03   -0.75556E-03   -0.66973E-06  3456   0.268E-03    0.825E-03
DAV:  27    -0.989862587625E+03   -0.60469E-03   -0.57314E-06  3168   0.245E-03    0.685E-03
DAV:  28    -0.989863172226E+03   -0.58460E-03   -0.76857E-06  3072   0.239E-03    0.532E-03
[...]
DAV:  29    -0.101378255390E+04   -0.12641E-05   -0.15918E-07  1920   0.665E-04    0.113E-03
DAV:  30    -0.101378255519E+04   -0.12908E-05   -0.14720E-07  1920   0.584E-04    0.115E-03
DAV:  31    -0.101378255581E+04   -0.61761E-06   -0.11248E-07  1872   0.601E-04
 122 F= -.10137826E+04 E0= -.10137287E+04  d E =-.672519E-01  mag=    25.6488
 curvature:  -1.05 expect dE=-0.305E+00 dE for cont linesearch -0.309E-08
 trial: gam= 1.11507 g(F)=  0.290E+00 g(S)=  0.000E+00 ort = 0.667E-04 (trialstep = 0.222E+00)
 search vector abs. value=  0.217E+01
 bond charge predicted
       N       E                     dE             d eps       ncg     rms          rms(c)
DAV:   1    -0.101377054284E+04    0.12012E-01   -0.27012E+01  3072   0.589E+00    0.287E+00
DAV:   2    -0.101386781905E+04   -0.97276E-01   -0.87703E-01  4176   0.137E+00    0.938E+00
DAV:   3    -0.101383983887E+04    0.27980E-01   -0.49903E-01  4896   0.794E-01    0.485E+00
DAV:   4    -0.101383347335E+04    0.63655E-02   -0.80057E-02  4944   0.338E-01    0.201E+00
DAV:   5    -0.101383862298E+04   -0.51496E-02   -0.32219E-02  4896   0.200E-01    0.174E+00
DAV:   6    -0.101383505360E+04    0.35694E-02   -0.41835E-02  4944   0.174E-01    0.700E-01
DAV:   7    -0.101383589506E+04   -0.84147E-03   -0.46814E-03  4464   0.115E-01    0.108E+00
DAV:   8    -0.101383582839E+04    0.66669E-04   -0.53941E-03  4752   0.124E-01    0.116E+00
DAV:   9    -0.101383563015E+04    0.19824E-03   -0.38755E-03  4704   0.101E-01    0.637E-01
DAV:  10    -0.101383617080E+04   -0.54064E-03   -0.30354E-03  4416   0.691E-02    0.383E-01
DAV:  11    -0.101383632993E+04   -0.15913E-03   -0.10791E-03  4368   0.469E-02    0.192E-01
DAV:  12    -0.101383650886E+04   -0.17893E-03   -0.35925E-04  4464   0.295E-02    0.167E-01
DAV:  13    -0.101383672946E+04   -0.22059E-03   -0.33886E-04  5328   0.192E-02    0.194E-01
DAV:  14    -0.101383690380E+04   -0.17434E-03   -0.13495E-04  4416   0.156E-02    0.880E-02
DAV:  15    -0.101383708017E+04   -0.17637E-03   -0.50648E-05  4080   0.109E-02    0.705E-02
DAV:  16    -0.101383717119E+04   -0.91023E-04   -0.28608E-05  4272   0.672E-03    0.287E-02
DAV:  17    -0.101383724520E+04   -0.74014E-04   -0.84972E-06  3984   0.380E-03    0.367E-02
DAV:  18    -0.101383728975E+04   -0.44541E-04   -0.84232E-06  3312   0.324E-03    0.146E-02
DAV:  19    -0.101383732746E+04   -0.37719E-04   -0.23233E-06  3024   0.251E-03    0.184E-02
DAV:  20    -0.101383737929E+04   -0.51824E-04   -0.18846E-06  2544   0.192E-03    0.797E-03
DAV:  21    -0.101383740783E+04   -0.28543E-04   -0.83817E-07  2208   0.153E-03    0.802E-03
DAV:  22    -0.101383743476E+04   -0.26930E-04   -0.62934E-07  2304   0.124E-03    0.621E-03
DAV:  23    -0.101383746630E+04   -0.31541E-04   -0.65305E-07  2064   0.110E-03    0.588E-03
DAV:  24    -0.101383749899E+04   -0.32688E-04   -0.98351E-07  2352   0.119E-03    0.348E-03
DAV:  25    -0.101383752376E+04   -0.24768E-04   -0.75901E-07  2064   0.109E-03    0.558E-03
DAV:  26    -0.101383753994E+04   -0.16178E-04   -0.64835E-07  2112   0.113E-03    0.257E-03
DAV:  27    -0.101383755191E+04   -0.11974E-04   -0.54373E-07  2016   0.103E-03    0.253E-03
DAV:  28    -0.101383755810E+04   -0.61870E-05   -0.39458E-07  2016   0.100E-03    0.249E-03
DAV:  29    -0.101383756282E+04   -0.47186E-05   -0.33229E-07  1968   0.847E-04    0.179E-03
DAV:  30    -0.101383756673E+04   -0.39109E-05   -0.29496E-07  2064   0.847E-04    0.161E-03
DAV:  31    -0.101383756916E+04   -0.24330E-05   -0.21412E-07  1920   0.729E-04    0.124E-03
DAV:  32    -0.101383757151E+04   -0.23501E-05   -0.22049E-07  2016   0.717E-04    0.129E-03
DAV:  33    -0.101383757244E+04   -0.93445E-06   -0.17215E-07  1920   0.694E-04
 123 F= -.10138376E+04 E0= -.10137834E+04  d E =-.550166E-01  mag=    25.7107
 trial-energy change:   -0.055017  1 .order   -0.055045   -0.064365   -0.045725
 step:   0.7653(harm=  0.7653)  dis= 0.05008  next Energy= -1013.893680 (dE=-0.111E+00)
 bond charge predicted
       N       E                     dE             d eps       ncg     rms          rms(c)
DAV:   1    -0.101348362014E+04    0.35395E+00   -0.16249E+02  3072   0.145E+01    0.700E+00
DAV:   2    -0.101402070763E+04   -0.53709E+00   -0.58139E+00  4128   0.339E+00    0.166E+01
DAV:   3    -0.101389739494E+04    0.12331E+00   -0.18375E+00  5184   0.183E+00    0.864E+00
DAV:   4    -0.101389803441E+04   -0.63947E-03   -0.40092E-01  4704   0.755E-01    0.655E+00
DAV:   5    -0.101389066299E+04    0.73714E-02   -0.94306E-02  4896   0.421E-01    0.290E+00
DAV:   6    -0.101389156348E+04   -0.90049E-03   -0.21954E-01  5040   0.404E-01    0.236E+00
DAV:   7    -0.101389084775E+04    0.71573E-03   -0.13676E-01  4464   0.332E-01    0.359E+00
DAV:   8    -0.101388775656E+04    0.30912E-02   -0.37486E-02  4656   0.300E-01    0.213E+00
DAV:   9    -0.101388954551E+04   -0.17889E-02   -0.21658E-02  4944   0.254E-01    0.140E+00
DAV:  10    -0.101389037653E+04   -0.83103E-03   -0.10071E-02  4704   0.170E-01    0.809E-01
DAV:  11    -0.101389135921E+04   -0.98268E-03   -0.92152E-03  4224   0.104E-01    0.637E-01
DAV:  12    -0.101389135849E+04    0.72624E-06   -0.51380E-03  4608   0.716E-02    0.361E-01
DAV:  13    -0.101389200784E+04   -0.64935E-03   -0.10864E-03  4512   0.495E-02    0.440E-01
DAV:  14    -0.101389239557E+04   -0.38773E-03   -0.79736E-04  5088   0.349E-02    0.276E-01
DAV:  15    -0.101389262186E+04   -0.22629E-03   -0.31578E-04  4272   0.287E-02    0.161E-01
DAV:  16    -0.101389306349E+04   -0.44163E-03   -0.31036E-04  4320   0.198E-02    0.148E-01
DAV:  17    -0.101389337176E+04   -0.30828E-03   -0.79151E-05  4320   0.142E-02    0.932E-02
DAV:  18    -0.101389352844E+04   -0.15668E-03   -0.73438E-05  4272   0.931E-03    0.426E-02
DAV:  19    -0.101389373194E+04   -0.20350E-03   -0.30159E-05  4176   0.653E-03    0.304E-02
DAV:  20    -0.101389394437E+04   -0.21243E-03   -0.12063E-05  4608   0.429E-03    0.243E-02
DAV:  21    -0.101389415690E+04   -0.21253E-03   -0.88019E-06  3648   0.294E-03    0.251E-02
DAV:  22    -0.101389431644E+04   -0.15954E-03   -0.61498E-06  3456   0.259E-03    0.130E-02
DAV:  23    -0.101389448143E+04   -0.16499E-03   -0.49487E-06  3264   0.221E-03    0.171E-02
DAV:  24    -0.101389462151E+04   -0.14008E-03   -0.52423E-06  3120   0.204E-03    0.100E-02
DAV:  25    -0.101389470854E+04   -0.87030E-04   -0.22334E-06  2832   0.172E-03    0.969E-03
DAV:  26    -0.101389477684E+04   -0.68300E-04   -0.15584E-06  2400   0.136E-03    0.506E-03
DAV:  27    -0.101389484875E+04   -0.71907E-04   -0.25008E-06  2784   0.140E-03    0.446E-03
DAV:  28    -0.101389488588E+04   -0.37139E-04   -0.10754E-06  2208   0.111E-03    0.401E-03
DAV:  29    -0.101389490709E+04   -0.21208E-04   -0.68025E-07  2112   0.106E-03    0.384E-03
DAV:  30    -0.101389492136E+04   -0.14267E-04   -0.62704E-07  2064   0.107E-03    0.375E-03
DAV:  31    -0.101389493042E+04   -0.90615E-05   -0.69118E-07  2160   0.109E-03    0.307E-03
DAV:  32    -0.101389493446E+04   -0.40377E-05   -0.43763E-07  2016   0.100E-03    0.205E-03
DAV:  33    -0.101389493587E+04   -0.14131E-05   -0.29808E-07  1920   0.865E-04    0.135E-03
DAV:  34    -0.101389493645E+04   -0.58168E-06   -0.17299E-07  1824   0.725E-04
 124 F= -.10138949E+04 E0= -.10138401E+04  d E =-.112381E+00  mag=    25.8575
 curvature:  -2.86 expect dE=-0.101E+01 dE for cont linesearch -0.614E-04
 trial: gam= 0.99940 g(F)=  0.352E+00 g(S)=  0.000E+00 ort = 0.683E-02 (trialstep = 0.283E+00)
 search vector abs. value=  0.254E+01
 bond charge predicted
       N       E                     dE             d eps       ncg     rms          rms(c)
DAV:   1    -0.101384694946E+04    0.47986E-01   -0.51283E+01  3072   0.801E+00    0.426E+00
DAV:   2    -0.101402369775E+04   -0.17675E+00   -0.22534E+00  4464   0.195E+00    0.124E+01
DAV:   3    -0.101396727101E+04    0.56427E-01   -0.27574E-01  4608   0.904E-01    0.401E+00
DAV:   4    -0.101396573659E+04    0.15344E-02   -0.10272E-01  4848   0.425E-01    0.304E+00
DAV:   5    -0.101396884301E+04   -0.31064E-02   -0.68776E-02  4656   0.315E-01    0.204E+00
DAV:   6    -0.101397667865E+04   -0.78356E-02   -0.23088E-01  5088   0.385E-01    0.390E+00
DAV:   7    -0.101396419563E+04    0.12483E-01   -0.65278E-02  4944   0.289E-01    0.152E+00
DAV:   8    -0.101396634808E+04   -0.21525E-02   -0.37953E-02  4800   0.229E-01    0.155E+00
DAV:   9    -0.101396611063E+04    0.23745E-03   -0.17429E-02  4704   0.170E-01    0.114E+00
DAV:  10    -0.101396525881E+04    0.85183E-03   -0.83937E-03  4848   0.121E-01    0.528E-01
DAV:  11    -0.101396614843E+04   -0.88963E-03   -0.42397E-03  4464   0.891E-02    0.483E-01
DAV:  12    -0.101396639382E+04   -0.24538E-03   -0.17537E-03  4560   0.611E-02    0.298E-01
DAV:  13    -0.101396678361E+04   -0.38979E-03   -0.52917E-04  4608   0.344E-02    0.254E-01
DAV:  14    -0.101396682928E+04   -0.45676E-04   -0.28532E-04  5424   0.244E-02    0.195E-01
DAV:  15    -0.101396696508E+04   -0.13580E-03   -0.27476E-04  4416   0.190E-02    0.139E-01
DAV:  16    -0.101396712609E+04   -0.16100E-03   -0.12873E-04  4512   0.140E-02    0.846E-02
DAV:  17    -0.101396725096E+04   -0.12487E-03   -0.35779E-05  3840   0.942E-03    0.609E-02
DAV:  18    -0.101396734477E+04   -0.93813E-04   -0.19564E-05  4368   0.524E-03    0.243E-02
DAV:  19    -0.101396742187E+04   -0.77095E-04   -0.52203E-06  3696   0.335E-03    0.203E-02
DAV:  20    -0.101396749942E+04   -0.77549E-04   -0.43802E-06  3120   0.264E-03    0.187E-02
DAV:  21    -0.101396757940E+04   -0.79988E-04   -0.32036E-06  3216   0.231E-03    0.124E-02
DAV:  22    -0.101396763738E+04   -0.57975E-04   -0.12779E-06  2640   0.190E-03    0.932E-03
DAV:  23    -0.101396767401E+04   -0.36625E-04   -0.10604E-06  2448   0.151E-03    0.563E-03
DAV:  24    -0.101396771707E+04   -0.43065E-04   -0.97692E-07  2736   0.132E-03    0.343E-03
DAV:  25    -0.101396775794E+04   -0.40872E-04   -0.83787E-07  2352   0.120E-03    0.305E-03
DAV:  26    -0.101396779493E+04   -0.36991E-04   -0.84660E-07  2544   0.118E-03    0.350E-03
DAV:  27    -0.101396782212E+04   -0.27184E-04   -0.75958E-07  2256   0.116E-03    0.362E-03
DAV:  28    -0.101396783407E+04   -0.11957E-04   -0.40539E-07  2016   0.100E-03    0.294E-03
DAV:  29    -0.101396784227E+04   -0.81991E-05   -0.27895E-07  1968   0.875E-04    0.188E-03
DAV:  30    -0.101396785089E+04   -0.86165E-05   -0.26682E-07  1968   0.825E-04    0.168E-03
DAV:  31    -0.101396785896E+04   -0.80699E-05   -0.27102E-07  2016   0.818E-04    0.158E-03
DAV:  32    -0.101396786810E+04   -0.91388E-05   -0.40643E-07  2160   0.843E-04    0.190E-03
DAV:  33    -0.101396787421E+04   -0.61121E-05   -0.40660E-07  2160   0.880E-04    0.121E-03
DAV:  34    -0.101396787593E+04   -0.17197E-05   -0.22994E-07  2016   0.800E-04    0.102E-03
DAV:  35    -0.101396787627E+04   -0.34059E-06   -0.14608E-07  1824   0.694E-04
 125 F= -.10139679E+04 E0= -.10139120E+04  d E =-.729398E-01  mag=    25.9002
 trial-energy change:   -0.072940  1 .order   -0.072956   -0.101582   -0.044329
 step:   0.5023(harm=  0.5023)  dis= 0.03484  next Energy= -1013.985053 (dE=-0.901E-01)
 bond charge predicted
       N       E                     dE             d eps       ncg     rms          rms(c)
DAV:   1    -0.101391391266E+04    0.53963E-01   -0.30749E+01  3072   0.620E+00    0.327E+00
DAV:   2    -0.101402916038E+04   -0.11525E+00   -0.14417E+00  4560   0.160E+00    0.100E+01
DAV:   3    -0.101398693010E+04    0.42230E-01   -0.19438E-01  4656   0.739E-01    0.231E+00
DAV:   4    -0.101398312560E+04    0.38045E-02   -0.10337E-01  4848   0.412E-01    0.213E+00
DAV:   5    -0.101398318767E+04   -0.62077E-04   -0.32548E-02  4560   0.238E-01    0.108E+00
DAV:   6    -0.101398531818E+04   -0.21305E-02   -0.18169E-02  5136   0.236E-01    0.114E+00
DAV:   7    -0.101398361990E+04    0.16983E-02   -0.22040E-02  4752   0.175E-01    0.103E+00
DAV:   8    -0.101398744119E+04   -0.38213E-02   -0.21798E-02  4944   0.186E-01    0.198E+00
DAV:   9    -0.101398219379E+04    0.52474E-02   -0.10761E-02  4704   0.152E-01    0.684E-01
DAV:  10    -0.101398371086E+04   -0.15171E-02   -0.86212E-03  4704   0.106E-01    0.592E-01
DAV:  11    -0.101398385882E+04   -0.14796E-03   -0.41551E-03  4848   0.735E-02    0.303E-01
DAV:  12    -0.101398407215E+04   -0.21333E-03   -0.64316E-04  4560   0.429E-02    0.160E-01
DAV:  13    -0.101398421653E+04   -0.14438E-03   -0.28188E-04  4896   0.246E-02    0.133E-01
DAV:  14    -0.101398427752E+04   -0.60997E-04   -0.11734E-04  4848   0.171E-02    0.904E-02
DAV:  15    -0.101398438713E+04   -0.10960E-03   -0.95560E-05  4656   0.129E-02    0.512E-02
DAV:  16    -0.101398451399E+04   -0.12686E-03   -0.35190E-05  4608   0.871E-03    0.482E-02
DAV:  17    -0.101398459238E+04   -0.78391E-04   -0.32902E-05  4896   0.607E-03    0.365E-02
DAV:  18    -0.101398465291E+04   -0.60525E-04   -0.14046E-05  3936   0.432E-03    0.303E-02
DAV:  19    -0.101398469198E+04   -0.39073E-04   -0.49461E-06  3120   0.307E-03    0.129E-02
DAV:  20    -0.101398473059E+04   -0.38616E-04   -0.33977E-06  2640   0.223E-03    0.184E-02
DAV:  21    -0.101398476280E+04   -0.32209E-04   -0.11807E-06  2784   0.192E-03    0.923E-03
DAV:  22    -0.101398479794E+04   -0.35135E-04   -0.10160E-06  2544   0.138E-03    0.668E-03
DAV:  23    -0.101398483524E+04   -0.37301E-04   -0.86790E-07  2256   0.134E-03    0.612E-03
DAV:  24    -0.101398486262E+04   -0.27385E-04   -0.54139E-07  2016   0.112E-03    0.294E-03
DAV:  25    -0.101398488884E+04   -0.26213E-04   -0.59637E-07  2208   0.108E-03    0.318E-03
DAV:  26    -0.101398491600E+04   -0.27163E-04   -0.77713E-07  2640   0.107E-03    0.206E-03
DAV:  27    -0.101398493256E+04   -0.16563E-04   -0.38643E-07  2016   0.946E-04    0.191E-03
DAV:  28    -0.101398494271E+04   -0.10146E-04   -0.30778E-07  2016   0.885E-04    0.185E-03
DAV:  29    -0.101398494984E+04   -0.71276E-05   -0.25123E-07  1968   0.834E-04    0.175E-03
DAV:  30    -0.101398495550E+04   -0.56599E-05   -0.24435E-07  1968   0.788E-04    0.154E-03
DAV:  31    -0.101398496458E+04   -0.90859E-05   -0.50328E-07  2160   0.860E-04    0.137E-03
DAV:  32    -0.101398496819E+04   -0.36058E-05   -0.33727E-07  2016   0.920E-04    0.126E-03
DAV:  33    -0.101398496884E+04   -0.64667E-06   -0.23360E-07  1968   0.775E-04
 126 F= -.10139850E+04 E0= -.10139281E+04  d E =-.900324E-01  mag=    25.9347
 curvature:  -1.78 expect dE=-0.381E+00 dE for cont linesearch -0.339E-06
 trial: gam= 0.67675 g(F)=  0.214E+00 g(S)=  0.000E+00 ort =-0.696E-03 (trialstep = 0.327E+00)
 search vector abs. value=  0.138E+01
 bond charge predicted
       N       E                     dE             d eps       ncg     rms          rms(c)
DAV:   1    -0.101395216423E+04    0.32804E-01   -0.37529E+01  3072   0.691E+00    0.255E+00
DAV:   2    -0.101407744220E+04   -0.12528E+00   -0.15448E+00  4656   0.175E+00    0.527E+00
DAV:   3    -0.101405274527E+04    0.24697E-01   -0.20907E-01  4848   0.761E-01    0.534E+00
DAV:   4    -0.101404090912E+04    0.11836E-01   -0.96296E-02  4752   0.368E-01    0.167E+00
DAV:   5    -0.101404323963E+04   -0.23305E-02   -0.86806E-02  5040   0.347E-01    0.323E+00
DAV:   6    -0.101403783298E+04    0.54067E-02   -0.70183E-02  4896   0.272E-01    0.175E+00
DAV:   7    -0.101403952611E+04   -0.16931E-02   -0.21042E-02  4560   0.169E-01    0.947E-01
DAV:   8    -0.101403957579E+04   -0.49678E-04   -0.10078E-02  4608   0.177E-01    0.102E+00
DAV:   9    -0.101403952797E+04    0.47822E-04   -0.94498E-03  4848   0.134E-01    0.108E+00
DAV:  10    -0.101404052923E+04   -0.10013E-02   -0.69086E-03  4512   0.112E-01    0.860E-01
DAV:  11    -0.101403942614E+04    0.11031E-02   -0.39725E-03  4656   0.828E-02    0.465E-01
DAV:  12    -0.101403977005E+04   -0.34392E-03   -0.19545E-03  4512   0.551E-02    0.279E-01
DAV:  13    -0.101404022444E+04   -0.45439E-03   -0.51152E-04  4272   0.356E-02    0.160E-01
DAV:  14    -0.101404039580E+04   -0.17136E-03   -0.23600E-04  4800   0.239E-02    0.135E-01
DAV:  15    -0.101404052204E+04   -0.12624E-03   -0.14169E-04  4608   0.161E-02    0.101E-01
DAV:  16    -0.101404063551E+04   -0.11347E-03   -0.91650E-05  4656   0.130E-02    0.108E-01
DAV:  17    -0.101404069857E+04   -0.63059E-04   -0.10031E-04  4368   0.997E-03    0.693E-02
DAV:  18    -0.101404077860E+04   -0.80031E-04   -0.24988E-05  4320   0.770E-03    0.574E-02
DAV:  19    -0.101404081522E+04   -0.36618E-04   -0.11943E-05  4128   0.516E-03    0.247E-02
DAV:  20    -0.101404085575E+04   -0.40526E-04   -0.59368E-06  3456   0.338E-03    0.217E-02
DAV:  21    -0.101404088619E+04   -0.30443E-04   -0.18342E-06  2640   0.230E-03    0.118E-02
DAV:  22    -0.101404092118E+04   -0.34995E-04   -0.15057E-06  2256   0.183E-03    0.772E-03
DAV:  23    -0.101404094355E+04   -0.22370E-04   -0.81186E-07  2016   0.162E-03    0.693E-03
DAV:  24    -0.101404096409E+04   -0.20538E-04   -0.76093E-07  2112   0.139E-03    0.504E-03
DAV:  25    -0.101404098126E+04   -0.17164E-04   -0.54430E-07  1968   0.121E-03    0.464E-03
DAV:  26    -0.101404098971E+04   -0.84553E-05   -0.40359E-07  1872   0.110E-03    0.264E-03
DAV:  27    -0.101404100525E+04   -0.15536E-04   -0.63553E-07  2352   0.104E-03    0.342E-03
DAV:  28    -0.101404101356E+04   -0.83145E-05   -0.32547E-07  1920   0.105E-03    0.257E-03
DAV:  29    -0.101404101966E+04   -0.60964E-05   -0.34545E-07  1968   0.875E-04    0.293E-03
DAV:  30    -0.101404102457E+04   -0.49110E-05   -0.29203E-07  1872   0.922E-04    0.188E-03
DAV:  31    -0.101404102882E+04   -0.42524E-05   -0.26917E-07  1920   0.816E-04    0.151E-03
DAV:  32    -0.101404103306E+04   -0.42425E-05   -0.35218E-07  2112   0.879E-04    0.190E-03
DAV:  33    -0.101404103508E+04   -0.20114E-05   -0.24571E-07  1872   0.816E-04    0.151E-03
DAV:  34    -0.101404103570E+04   -0.62716E-06   -0.17852E-07  1824   0.761E-04
 127 F= -.10140410E+04 E0= -.10139828E+04  d E =-.560669E-01  mag=    25.9577
 trial-energy change:   -0.056067  1 .order   -0.056087   -0.069945   -0.042230
 step:   0.8251(harm=  0.8251)  dis= 0.04629  next Energy= -1014.073231 (dE=-0.883E-01)
 bond charge predicted
       N       E                     dE             d eps       ncg     rms          rms(c)
DAV:   1    -0.101386956932E+04    0.17147E+00   -0.87153E+01  3072   0.105E+01    0.448E+00
DAV:   2    -0.101421922972E+04   -0.34966E+00   -0.53130E+00  4752   0.300E+00    0.868E+00
DAV:   3    -0.101411762280E+04    0.10161E+00   -0.74905E-01  4848   0.138E+00    0.883E+00
DAV:   4    -0.101408514485E+04    0.32478E-01   -0.32250E-01  4752   0.650E-01    0.316E+00
DAV:   5    -0.101408097626E+04    0.41686E-02   -0.25663E-01  4800   0.586E-01    0.515E+00
DAV:   6    -0.101406729848E+04    0.13678E-01   -0.15850E-01  4944   0.471E-01    0.292E+00
DAV:   7    -0.101407040841E+04   -0.31099E-02   -0.60006E-02  4704   0.320E-01    0.182E+00
DAV:   8    -0.101406906152E+04    0.13469E-02   -0.32856E-02  4656   0.277E-01    0.124E+00
DAV:   9    -0.101407117530E+04   -0.21138E-02   -0.41109E-02  4656   0.215E-01    0.160E+00
DAV:  10    -0.101407254461E+04   -0.13693E-02   -0.14184E-02  4272   0.169E-01    0.194E+00
DAV:  11    -0.101406924832E+04    0.32963E-02   -0.99848E-03  4704   0.140E-01    0.848E-01
DAV:  12    -0.101407056901E+04   -0.13207E-02   -0.67952E-03  4704   0.982E-02    0.512E-01
DAV:  13    -0.101407159741E+04   -0.10284E-02   -0.24946E-03  4368   0.673E-02    0.262E-01
DAV:  14    -0.101407221064E+04   -0.61323E-03   -0.89993E-04  4512   0.431E-02    0.293E-01
DAV:  15    -0.101407221162E+04   -0.97192E-06   -0.40038E-04  4896   0.301E-02    0.246E-01
DAV:  16    -0.101407243616E+04   -0.22454E-03   -0.30143E-04  4896   0.205E-02    0.206E-01
DAV:  17    -0.101407265164E+04   -0.21548E-03   -0.24440E-04  4320   0.178E-02    0.105E-01
DAV:  18    -0.101407283375E+04   -0.18211E-03   -0.72886E-05  4080   0.129E-02    0.101E-01
DAV:  19    -0.101407291076E+04   -0.77009E-04   -0.82510E-05  4656   0.101E-02    0.506E-02
