unknown system                          
           1
    15.464300    0.000000    0.000000
    -7.732150   13.392477    0.000000
     0.000000    0.000000   21.048201
   Ce   O    Ir
    32   114     6
Direct configuration=     1
   0.00000000  0.00000000  0.45993000
   0.16667000  0.08333000  0.30996000
   0.25000000  0.00000000  0.45993000
   0.41667000  0.08333000  0.30996000
   0.50000000  0.00000000  0.45993000
   0.66667000  0.08333000  0.30996000
   0.75000000  0.00000000  0.45993000
   0.91667000  0.08333000  0.30996000
   0.00000000  0.25000000  0.45993000
   0.16667000  0.33333000  0.30996000
   0.25000000  0.25000000  0.45993000
   0.41667000  0.33333000  0.30996000
   0.50000000  0.25000000  0.45993000
   0.66667000  0.33333000  0.30996000
   0.75000000  0.25000000  0.45993000
   0.91667000  0.33333000  0.30996000
   0.00000000  0.50000000  0.45993000
   0.16667000  0.58333000  0.30996000
   0.25000000  0.50000000  0.45993000
   0.41667000  0.58333000  0.30996000
   0.50000000  0.50000000  0.45993000
   0.66667000  0.58333000  0.30996000
   0.75000000  0.50000000  0.45993000
   0.91667000  0.58333000  0.30996000
   0.00000000  0.75000000  0.45993000
   0.16667000  0.83333000  0.30996000
   0.25000000  0.75000000  0.45993000
   0.41667000  0.83333000  0.30996000
   0.50000000  0.75000000  0.45993000
   0.66667000  0.83333000  0.30996000
   0.75000000  0.75000000  0.45993000
   0.91667000  0.83333000  0.30996000
   0.00000000  0.00000000  0.57241000
   0.08333000  0.16667000  0.27247000
   0.16667000  0.08333000  0.42244000
   0.08333000  0.16667000  0.49742000
   0.00000000  0.00000000  0.34745000
   0.16667000  0.08333000  0.19748000
   0.25000000  0.00000000  0.57241000
   0.33333000  0.16667000  0.27247000
   0.41667000  0.08333000  0.42244000
   0.33333000  0.16667000  0.49742000
   0.25000000  0.00000000  0.34745000
   0.41667000  0.08333000  0.19748000
   0.50000000  0.00000000  0.57241000
   0.58333000  0.16667000  0.27247000
   0.66667000  0.08333000  0.42244000
   0.58333000  0.16667000  0.49742000
   0.50000000  0.00000000  0.34745000
   0.66667000  0.08333000  0.19748000
   0.75000000  0.00000000  0.57241000
   0.83333000  0.16667000  0.27247000
   0.91667000  0.08333000  0.42244000
   0.83333000  0.16667000  0.49742000
   0.75000000  0.00000000  0.34745000
   0.91667000  0.08333000  0.19748000
   0.00000000  0.25000000  0.57241000
   0.08333000  0.41667000  0.27247000
   0.16667000  0.33333000  0.42244000
   0.08333000  0.41667000  0.49742000
   0.00000000  0.25000000  0.34745000
   0.16667000  0.33333000  0.19748000
   0.25000000  0.25000000  0.57241000
   0.33333000  0.41667000  0.27247000
   0.41667000  0.33333000  0.42244000
   0.33333000  0.41667000  0.49742000
   0.25000000  0.25000000  0.34745000
   0.41667000  0.33333000  0.19748000
   0.50000000  0.25000000  0.57241000
   0.58333000  0.41667000  0.27247000
   0.66667000  0.33333000  0.42244000
   0.58333000  0.41667000  0.49742000
   0.50000000  0.25000000  0.34745000
   0.66667000  0.33333000  0.19748000
   0.75000000  0.25000000  0.57241000
   0.83333000  0.41667000  0.27247000
   0.91667000  0.33333000  0.42244000
   0.83333000  0.41667000  0.49742000
   0.75000000  0.25000000  0.34745000
   0.91667000  0.33333000  0.19748000
   0.00000000  0.50000000  0.57241000
   0.08333000  0.66667000  0.27247000
   0.16667000  0.58333000  0.42244000
   0.08333000  0.66667000  0.49742000
   0.00000000  0.50000000  0.34745000
   0.16667000  0.58333000  0.19748000
   0.25000000  0.50000000  0.57241000
   0.33333000  0.66667000  0.27247000
   0.41667000  0.58333000  0.42244000
   0.33333000  0.66667000  0.49742000
   0.25000000  0.50000000  0.34745000
   0.41667000  0.58333000  0.19748000
   0.50000000  0.50000000  0.57241000
   0.58333000  0.66667000  0.27247000
   0.66667000  0.58333000  0.42244000
   0.58333000  0.66667000  0.49742000
   0.50000000  0.50000000  0.34745000
   0.66667000  0.58333000  0.19748000
   0.75000000  0.50000000  0.57241000
   0.83333000  0.66667000  0.27247000
   0.91667000  0.58333000  0.42244000
   0.83333000  0.66667000  0.49742000
   0.75000000  0.50000000  0.34745000
   0.91667000  0.58333000  0.19748000
   0.00000000  0.75000000  0.57241000
   0.08333000  0.91667000  0.27247000
   0.16667000  0.83333000  0.42244000
   0.08333000  0.91667000  0.49742000
   0.00000000  0.75000000  0.34745000
   0.16667000  0.83333000  0.19748000
   0.25000000  0.75000000  0.57241000
   0.33333000  0.91667000  0.27247000
   0.41667000  0.83333000  0.42244000
   0.33333000  0.91667000  0.49742000
   0.25000000  0.75000000  0.34745000
   0.41667000  0.83333000  0.19748000
   0.50000000  0.75000000  0.57241000
   0.58333000  0.91667000  0.27247000
   0.66667000  0.83333000  0.42244000
   0.58333000  0.91667000  0.49742000
   0.50000000  0.75000000  0.34745000
   0.66667000  0.83333000  0.19748000
   0.75000000  0.75000000  0.57241000
   0.83333000  0.91667000  0.27247000
   0.91667000  0.83333000  0.42244000
   0.83333000  0.91667000  0.49742000
   0.75000000  0.75000000  0.34745000
   0.91667000  0.83333000  0.19748000
   0.58333000  0.42313000  0.64471000
   0.33333000  0.67313000  0.64471000
   0.83333000  0.67313000  0.64471000
   0.58333000  0.92313000  0.64471000
   0.67274000  0.33528000  0.64832000
   0.42274000  0.58528000  0.64832000
   0.92274000  0.58528000  0.64832000
   0.67274000  0.83528000  0.64832000
   0.67456000  0.33342000  0.50166000
   0.42456000  0.58342000  0.50166000
   0.92456000  0.58342000  0.50166000
   0.67456000  0.83342000  0.50166000
   0.32946000  0.17333000  0.64471000
   0.07946000  0.42333000  0.64471000
   0.41887000  0.08548000  0.64832000
   0.16887000  0.33548000  0.64832000
   0.42069000  0.08361000  0.50166000
   0.17069000  0.33361000  0.50166000
   0.62755000  0.87171000  0.57241000
   0.38290000  0.63176000  0.57241000
   0.88375000  0.62820000  0.57241000
   0.63909000  0.38824000  0.57241000
   0.12902000  0.38196000  0.57241000
   0.38522000  0.13844000  0.57241000
Direct configuration=     2
   0.00064950  0.00124104  0.46113972
   0.16667000  0.08333000  0.30996000
   0.23906893  0.99011415  0.46106175
   0.41667000  0.08333000  0.30996000
   0.50276028  0.99880563  0.46259975
   0.66667000  0.08333000  0.30996000
   0.75956764  0.01330423  0.45847071
   0.91667000  0.08333000  0.30996000
   0.99042815  0.24079567  0.46072772
   0.16667000  0.33333000  0.30996000
   0.24902466  0.24859613  0.46243357
   0.41667000  0.33333000  0.30996000
   0.50225008  0.25352580  0.45569065
   0.66667000  0.33333000  0.30996000
   0.75505458  0.24462117  0.46672176
   0.91667000  0.33333000  0.30996000
   0.99995993  0.49640375  0.46139948
   0.16667000  0.58333000  0.30996000
   0.25176421  0.50109069  0.45641596
   0.41667000  0.58333000  0.30996000
   0.50069806  0.49952359  0.46227304
   0.66667000  0.58333000  0.30996000
   0.75232915  0.50343255  0.45437465
   0.91667000  0.58333000  0.30996000
   0.00935941  0.76205973  0.45815669
   0.16667000  0.83333000  0.30996000
   0.24906514  0.75319809  0.45947170
   0.41667000  0.83333000  0.30996000
   0.50071431  0.75128620  0.45481217
   0.66667000  0.83333000  0.30996000
   0.75151776  0.74824279  0.46198126
   0.91667000  0.83333000  0.30996000
   0.99969555  0.99945408  0.57249295
   0.08333000  0.16667000  0.27247000
   0.16851034  0.08447384  0.42247736
   0.08159284  0.16187623  0.49572295
   0.00029788  0.99978318  0.34708080
   0.16667000  0.08333000  0.19748000
   0.25685561  0.00671873  0.57146494
   0.33333000  0.16667000  0.27247000
   0.41575439  0.08595733  0.41936084
   0.33083988  0.17223452  0.49533578
   0.25126360  0.00064268  0.34809296
   0.41667000  0.08333000  0.19748000
   0.49988732  0.00057973  0.57276090
   0.58333000  0.16667000  0.27247000
   0.66440487  0.08380931  0.42181354
   0.58413456  0.16402402  0.49484970
   0.49874404  0.00028634  0.34775746
   0.66667000  0.08333000  0.19748000
   0.74237535  0.99138749  0.57259141
   0.83333000  0.16667000  0.27247000
   0.91831680  0.08380029  0.42182953
   0.83443102  0.16911858  0.49611245
   0.74936210  0.99818559  0.34614822
   0.91667000  0.08333000  0.19748000
   0.00915423  0.25952106  0.57178232
   0.08333000  0.41667000  0.27247000
   0.16628089  0.33566039  0.41643225
   0.08129639  0.42233611  0.49568227
   0.00172730  0.25133072  0.34718416
   0.16667000  0.33333000  0.19748000
   0.24977231  0.25041590  0.57279588
   0.33333000  0.41667000  0.27247000
   0.41743166  0.33215451  0.42287780
   0.33647120  0.41408408  0.49481334
   0.24973114  0.25096409  0.34808793
   0.41667000  0.33333000  0.19748000
   0.51765279  0.26806228  0.57075240
   0.58333000  0.41667000  0.27247000
   0.66506769  0.33574888  0.41840830
   0.58152117  0.41980534  0.49649466
   0.50053945  0.24972180  0.34884297
   0.66667000  0.33333000  0.19748000
   0.75012931  0.25126269  0.57004313
   0.83333000  0.41667000  0.27247000
   0.91789055  0.33428065  0.42245444
   0.83823135  0.41704189  0.49473286
   0.74948824  0.25130614  0.34754292
   0.91667000  0.33333000  0.19748000
   0.99967213  0.50023892  0.57295287
   0.08333000  0.66667000  0.27247000
   0.16759501  0.58222152  0.42296700
   0.08917573  0.67044301  0.49624791
   0.99942159  0.50074800  0.34790126
   0.16667000  0.58333000  0.19748000
   0.25774834  0.50863300  0.57030710
   0.33333000  0.66667000  0.27247000
   0.41439944  0.58494240  0.41466888
   0.33079247  0.66947633  0.49644436
   0.25052354  0.49942436  0.34882482
   0.41667000  0.58333000  0.19748000
   0.49975760  0.50030019  0.57297962
   0.58333000  0.66667000  0.27247000
   0.66758729  0.58219551  0.42286566
   0.58787335  0.66566868  0.49470353
   0.49943440  0.50041109  0.34773642
   0.66667000  0.58333000  0.19748000
   0.76659253  0.51666708  0.57096843
   0.83333000  0.66667000  0.27247000
   0.91450170  0.58524846  0.41486444
   0.83145060  0.66817931  0.49663242
   0.75047302  0.49956107  0.34890723
   0.91667000  0.58333000  0.19748000
   0.99738356  0.74657157  0.57043569
   0.08333000  0.91667000  0.27247000
   0.16545559  0.83291703  0.42249591
   0.08252289  0.91552251  0.49589807
   0.99936013  0.74864338  0.34878613
   0.16667000  0.83333000  0.19748000
   0.24949170  0.75042275  0.57371171
   0.33333000  0.91667000  0.27247000
   0.41721979  0.83218585  0.42285700
   0.33005988  0.91103001  0.49616626
   0.25001690  0.74980143  0.34761036
   0.41667000  0.83333000  0.19748000
   0.50452044  0.75473216  0.57080308
   0.58333000  0.91667000  0.27247000
   0.66282246  0.83191889  0.41735146
   0.57830430  0.91594087  0.49756159
   0.50045141  0.74935398  0.34873263
   0.66667000  0.83333000  0.19748000
   0.74995198  0.75083867  0.57241895
   0.83333000  0.91667000  0.27247000
   0.91654186  0.83107787  0.42252574
   0.84051789  0.91741862  0.49727279
   0.74908691  0.75017651  0.34781580
   0.91667000  0.83333000  0.19748000
   0.58496971  0.42181832  0.64036899
   0.33490565  0.67162092  0.64041013
   0.83414356  0.66947276  0.64015210
   0.58362736  0.91965037  0.64029539
   0.67246044  0.33668556  0.64367567
   0.42180282  0.58620133  0.64404643
   0.92133627  0.58473479  0.64403286
   0.67164451  0.83386770  0.64518879
   0.67302041  0.32815985  0.50695534
   0.42407152  0.57983380  0.50993685
   0.92630967  0.57841538  0.50985958
   0.67723426  0.82768668  0.50714064
   0.33131060  0.17195610  0.63992005
   0.08137245  0.42226758  0.64074193
   0.41871156  0.08671870  0.64408104
   0.16847904  0.33671415  0.64409829
   0.42370905  0.07913635  0.50619075
   0.17357944  0.32995336  0.50845656
   0.63553505  0.89218102  0.58931897
   0.36989955  0.62269995  0.58995159
   0.88418662  0.63971093  0.59049057
   0.61400282  0.36758118  0.59037746
   0.10968367  0.36586227  0.58970957
   0.35842400  0.11471846  0.59009169
Direct configuration=     3
   0.00016899  0.00032291  0.46024476
   0.16667000  0.08333000  0.30996000
   0.24715582  0.99742778  0.46022447
   0.41667000  0.08333000  0.30996000
   0.50071820  0.99968923  0.46062465
   0.66667000  0.08333000  0.30996000
   0.75248943  0.00346166  0.45955030
   0.91667000  0.08333000  0.30996000
   0.99750948  0.24760510  0.46013756
   0.16667000  0.33333000  0.30996000
   0.24974622  0.24963472  0.46058141
   0.41667000  0.33333000  0.30996000
   0.50058546  0.25091739  0.45882695
   0.66667000  0.33333000  0.30996000
   0.75131516  0.24860047  0.46169717
   0.91667000  0.33333000  0.30996000
   0.99998957  0.49906428  0.46031235
   0.16667000  0.58333000  0.30996000
   0.25045904  0.50028379  0.45901567
   0.41667000  0.58333000  0.30996000
   0.50018163  0.49987604  0.46053964
   0.66667000  0.58333000  0.30996000
   0.75060603  0.50089312  0.45848454
   0.91667000  0.58333000  0.30996000
   0.00243525  0.75313785  0.45946860
   0.16667000  0.83333000  0.30996000
   0.24975676  0.75083212  0.45981075
   0.41667000  0.83333000  0.30996000
   0.50018586  0.75033466  0.45859838
   0.66667000  0.83333000  0.30996000
   0.75039491  0.74954279  0.46046372
   0.91667000  0.83333000  0.30996000
   0.99992078  0.99985796  0.57243158
   0.08333000  0.16667000  0.27247000
   0.16714884  0.08362762  0.42244972
   0.08287800  0.16542270  0.49697844
   0.00007751  0.99994359  0.34735394
   0.16667000  0.08333000  0.19748000
   0.25178378  0.00174816  0.57216410
   0.33333000  0.16667000  0.27247000
   0.41643177  0.08401361  0.42163883
   0.33268209  0.16811785  0.49687770
   0.25032878  0.00016722  0.34761729
   0.41667000  0.08333000  0.19748000
   0.49997068  0.00015084  0.57250130
   0.58333000  0.16667000  0.27247000
   0.66608063  0.08345471  0.42227700
   0.58353934  0.16598154  0.49675123
   0.49967321  0.00007450  0.34753000
   0.66667000  0.08333000  0.19748000
   0.74801612  0.99775909  0.57245720
   0.83333000  0.16667000  0.27247000
   0.91709848  0.08345237  0.42228116
   0.83361648  0.16730710  0.49707978
   0.74983402  0.99952790  0.34711129
   0.91667000  0.08333000  0.19748000
   0.00238186  0.25247731  0.57224668
   0.08333000  0.41667000  0.27247000
   0.16656876  0.33393635  0.42087683
   0.08280087  0.41814428  0.49696786
   0.00044943  0.25034624  0.34738083
   0.16667000  0.33333000  0.19748000
   0.24994076  0.25010821  0.57251040
   0.33333000  0.41667000  0.27247000
   0.41686818  0.33302415  0.42255391
   0.33414732  0.41599716  0.49674177
   0.24993005  0.25025085  0.34761598
   0.41667000  0.33333000  0.19748000
   0.50459312  0.25469967  0.57197871
   0.58333000  0.41667000  0.27247000
   0.66625309  0.33395938  0.42139098
   0.58285936  0.41748579  0.49717923
   0.50014036  0.24992761  0.34781244
   0.66667000  0.33333000  0.19748000
   0.75003364  0.25032854  0.57179416
   0.83333000  0.41667000  0.27247000
   0.91698758  0.33357735  0.42244376
   0.83460529  0.41676676  0.49672083
   0.74986684  0.25033985  0.34747418
   0.91667000  0.33333000  0.19748000
   0.99991469  0.50006217  0.57255125
   0.08333000  0.66667000  0.27247000
   0.16691068  0.58304158  0.42257712
   0.08485102  0.66765171  0.49711503
   0.99984950  0.50019462  0.34756741
   0.16667000  0.58333000  0.19748000
   0.25201606  0.50224624  0.57186284
   0.33333000  0.66667000  0.27247000
   0.41607922  0.58374953  0.42041801
   0.33266975  0.66740019  0.49716615
   0.25013622  0.49985022  0.34780772
   0.41667000  0.58333000  0.19748000
   0.49993693  0.50007811  0.57255821
   0.58333000  0.66667000  0.27247000
   0.66690867  0.58303481  0.42255075
   0.58451215  0.66640946  0.49671319
   0.49985284  0.50010696  0.34752452
   0.66667000  0.58333000  0.19748000
   0.75431725  0.50433665  0.57203492
   0.83333000  0.66667000  0.27247000
   0.91610583  0.58382917  0.42046890
   0.83284099  0.66706271  0.49721508
   0.75012308  0.49988579  0.34782916
   0.91667000  0.58333000  0.19748000
   0.99931922  0.74910795  0.57189630
   0.08333000  0.91667000  0.27247000
   0.16635402  0.83322255  0.42245455
   0.08311999  0.91637143  0.49702400
   0.99983351  0.74964702  0.34779765
   0.16667000  0.83333000  0.19748000
   0.24986774  0.75011000  0.57274870
   0.33333000  0.91667000  0.27247000
   0.41681305  0.83303230  0.42254850
   0.33247914  0.91520252  0.49709379
   0.25000440  0.74994833  0.34749172
   0.41667000  0.83333000  0.19748000
   0.50117619  0.75123127  0.57199189
   0.58333000  0.91667000  0.27247000
   0.66566890  0.83296284  0.42111600
   0.58202235  0.91648028  0.49745684
   0.50011745  0.74983191  0.34778373
   0.66667000  0.83333000  0.19748000
   0.74998750  0.75021822  0.57241233
   0.83333000  0.91667000  0.27247000
   0.91663666  0.83274401  0.42246231
   0.83520023  0.91686478  0.49738170
   0.74976242  0.75004593  0.34754518
   0.91667000  0.83333000  0.19748000
   0.58375664  0.42278871  0.64358050
   0.33373997  0.67273735  0.64359121
   0.83354168  0.67217841  0.64352407
   0.58340737  0.92222463  0.64356135
   0.67266726  0.33564572  0.64711158
   0.42249615  0.58551972  0.64720805
   0.92237476  0.58513814  0.64720452
   0.67245496  0.83491253  0.64750528
   0.67415941  0.33205135  0.50303781
   0.42443290  0.58248690  0.50381357
   0.92501525  0.58211784  0.50379347
   0.67525582  0.83192823  0.50308602
   0.32994151  0.17297252  0.64346369
   0.07995761  0.42305357  0.64367754
   0.41882878  0.08580230  0.64721705
   0.16876828  0.33580112  0.64722154
   0.42147554  0.08244599  0.50283887
   0.17144181  0.33265857  0.50342841
   0.62962765  0.87703640  0.57680959
   0.37951738  0.62940264  0.57697419
   0.88386360  0.63119506  0.57711443
   0.63256250  0.38286473  0.57708500
   0.12398883  0.37777149  0.57691122
   0.37824788  0.13226783  0.57701064
Direct configuration=     4
   0.00030866  0.00058979  0.46050490
   0.16667000  0.08333000  0.30996000
   0.24480515  0.99530188  0.46046785
   0.41667000  0.08333000  0.30996000
   0.50131179  0.99943239  0.46119876
   0.66667000  0.08333000  0.30996000
   0.75454690  0.00632266  0.45923649
   0.91667000  0.08333000  0.30996000
   0.99545110  0.24562576  0.46030910
   0.16667000  0.33333000  0.30996000
   0.24953648  0.24933283  0.46111979
   0.41667000  0.33333000  0.30996000
   0.50106932  0.25167559  0.45791530
   0.66667000  0.33333000  0.30996000
   0.75240212  0.24744378  0.46315770
   0.91667000  0.33333000  0.30996000
   0.99998096  0.49829093  0.46062835
   0.16667000  0.58333000  0.30996000
   0.25083842  0.50051833  0.45826000
   0.41667000  0.58333000  0.30996000
   0.50033174  0.49977359  0.46104350
   0.66667000  0.58333000  0.30996000
   0.75110690  0.50163127  0.45728989
   0.91667000  0.58333000  0.30996000
   0.00444794  0.75573123  0.45908726
   0.16667000  0.83333000  0.30996000
   0.24955572  0.75151985  0.45971220
   0.41667000  0.83333000  0.30996000
   0.50033947  0.75061125  0.45749782
   0.66667000  0.83333000  0.30996000
   0.75072130  0.74916491  0.46090483
   0.91667000  0.83333000  0.30996000
   0.99985531  0.99974056  0.57244942
   0.08333000  0.16667000  0.27247000
   0.16754460  0.08387360  0.42245776
   0.08250444  0.16439182  0.49661350
   0.00014157  0.99989696  0.34727454
   0.16667000  0.08333000  0.19748000
   0.25325804  0.00319299  0.57196087
   0.33333000  0.16667000  0.27247000
   0.41623487  0.08457861  0.42097667
   0.33214660  0.16931447  0.49642950
   0.25060051  0.00030542  0.34775556
   0.41667000  0.08333000  0.19748000
   0.49994645  0.00027551  0.57257676
   0.58333000  0.16667000  0.27247000
   0.66559352  0.08355779  0.42214228
   0.58371235  0.16541253  0.49619850
   0.49940312  0.00013608  0.34759612
   0.66667000  0.08333000  0.19748000
   0.74637648  0.99590702  0.57249621
   0.83333000  0.16667000  0.27247000
   0.91745262  0.08355350  0.42214988
   0.83385325  0.16783366  0.49679860
   0.74969685  0.99913772  0.34683134
   0.91667000  0.08333000  0.19748000
   0.00435043  0.25452476  0.57211170
   0.08333000  0.41667000  0.27247000
   0.16648508  0.33443749  0.41958489
   0.08236355  0.41936274  0.49659417
   0.00082088  0.25063241  0.34732366
   0.16667000  0.33333000  0.19748000
   0.24989180  0.25019765  0.57259338
   0.33333000  0.41667000  0.27247000
   0.41703197  0.33277136  0.42264806
   0.33482282  0.41544107  0.49618122
   0.24987223  0.25045817  0.34775317
   0.41667000  0.33333000  0.19748000
   0.50838926  0.25858387  0.57162225
   0.58333000  0.41667000  0.27247000
   0.66590852  0.33447954  0.42052399
   0.58247038  0.41816003  0.49698024
   0.50025637  0.24986779  0.34811199
   0.66667000  0.33333000  0.19748000
   0.75006145  0.25060008  0.57128518
   0.83333000  0.41667000  0.27247000
   0.91725005  0.33378178  0.42244686
   0.83565930  0.41684673  0.49614297
   0.74975679  0.25062073  0.34749416
   0.91667000  0.33333000  0.19748000
   0.99984418  0.50011355  0.57266799
   0.08333000  0.66667000  0.27247000
   0.16710960  0.58280321  0.42269045
   0.08610811  0.66846307  0.49686298
   0.99972512  0.50035548  0.34766445
   0.16667000  0.58333000  0.19748000
   0.25368230  0.50410272  0.57141062
   0.33333000  0.66667000  0.27247000
   0.41559095  0.58409627  0.41874687
   0.33212407  0.66800367  0.49695634
   0.25024881  0.49972644  0.34810337
   0.41667000  0.58333000  0.19748000
   0.49988480  0.50014266  0.57268070
   0.58333000  0.66667000  0.27247000
   0.66710593  0.58279085  0.42264229
   0.58548917  0.66619414  0.49612903
   0.49973121  0.50019536  0.34758612
   0.66667000  0.58333000  0.19748000
   0.75788539  0.50792082  0.57172491
   0.83333000  0.66667000  0.27247000
   0.91563954  0.58424172  0.41883981
   0.83243684  0.66738728  0.49704571
   0.75022480  0.49979140  0.34814253
   0.91667000  0.58333000  0.19748000
   0.99875657  0.74837068  0.57147173
   0.08333000  0.91667000  0.27247000
   0.16609287  0.83313374  0.42246657
   0.08294643  0.91612467  0.49669672
   0.99969591  0.74935528  0.34808498
   0.16667000  0.83333000  0.19748000
   0.24975843  0.75020091  0.57302862
   0.33333000  0.91667000  0.27247000
   0.41693128  0.83278626  0.42263817
   0.33177592  0.91398967  0.49682417
   0.25000803  0.74990563  0.34752621
   0.41667000  0.83333000  0.19748000
   0.50214828  0.75224890  0.57164633
   0.58333000  0.91667000  0.27247000
   0.66484150  0.83265939  0.42002174
   0.58094160  0.91632349  0.49748729
   0.50021453  0.74969299  0.34805956
   0.66667000  0.83333000  0.19748000
   0.74997718  0.75039857  0.57241425
   0.83333000  0.91667000  0.27247000
   0.91660910  0.83225970  0.42248075
   0.83674595  0.91702577  0.49735004
   0.74956606  0.75008388  0.34762384
   0.91667000  0.83333000  0.19748000
   0.58410925  0.42250664  0.64264699
   0.33407881  0.67241283  0.64266654
   0.83371664  0.67139194  0.64254392
   0.58347132  0.92147635  0.64261201
   0.67260714  0.33594797  0.64611284
   0.42229462  0.58571785  0.64628904
   0.92207289  0.58502089  0.64628259
   0.67221938  0.83460882  0.64683193
   0.67382833  0.33092018  0.50417654
   0.42432786  0.58171571  0.50559346
   0.92539151  0.58104162  0.50555675
   0.67583091  0.83069531  0.50426460
   0.33033947  0.17267707  0.64243364
   0.08036887  0.42282510  0.64282423
   0.41879471  0.08606868  0.64630549
   0.16868420  0.33606651  0.64631369
   0.42212477  0.08148395  0.50381318
   0.17206317  0.33187223  0.50488998
   0.63134479  0.88143859  0.58044577
   0.37672171  0.62745433  0.58074642
   0.88395750  0.63367042  0.58100256
   0.62716764  0.37842216  0.58094880
   0.11983066  0.37430976  0.58063140
   0.37248555  0.12716664  0.58081299
Direct configuration=     5
   0.00032171  0.00061471  0.46052920
   0.16667000  0.08333000  0.30996000
   0.24458559  0.99510331  0.46049058
   0.41667000  0.08333000  0.30996000
   0.50136723  0.99940840  0.46125239
   0.66667000  0.08333000  0.30996000
   0.75473907  0.00658989  0.45920718
   0.91667000  0.08333000  0.30996000
   0.99525884  0.24544088  0.46032513
   0.16667000  0.33333000  0.30996000
   0.24951689  0.24930463  0.46117008
   0.41667000  0.33333000  0.30996000
   0.50111452  0.25174641  0.45783015
   0.66667000  0.33333000  0.30996000
   0.75250365  0.24733574  0.46329412
   0.91667000  0.33333000  0.30996000
   0.99998015  0.49821870  0.46065787
   0.16667000  0.58333000  0.30996000
   0.25087386  0.50054024  0.45818942
   0.41667000  0.58333000  0.30996000
   0.50034577  0.49976402  0.46109056
   0.66667000  0.58333000  0.30996000
   0.75115368  0.50170022  0.45717831
   0.91667000  0.58333000  0.30996000
   0.00463593  0.75597346  0.45905164
   0.16667000  0.83333000  0.30996000
   0.24953694  0.75158409  0.45970300
   0.41667000  0.83333000  0.30996000
   0.50035381  0.75063708  0.45739502
   0.66667000  0.83333000  0.30996000
   0.75075178  0.74912962  0.46094604
   0.91667000  0.83333000  0.30996000
   0.99984920  0.99972959  0.57245109
   0.08333000  0.16667000  0.27247000
   0.16758156  0.08389657  0.42245851
   0.08246955  0.16429554  0.49657941
   0.00014755  0.99989261  0.34726713
   0.16667000  0.08333000  0.19748000
   0.25339574  0.00332794  0.57194189
   0.33333000  0.16667000  0.27247000
   0.41621648  0.08463138  0.42091482
   0.33209659  0.16942623  0.49638764
   0.25062589  0.00031833  0.34776847
   0.41667000  0.08333000  0.19748000
   0.49994419  0.00028716  0.57258381
   0.58333000  0.16667000  0.27247000
   0.66554803  0.08356741  0.42212970
   0.58372851  0.16535939  0.49614687
   0.49937789  0.00014183  0.34760229
   0.66667000  0.08333000  0.19748000
   0.74622334  0.99573403  0.57249986
   0.83333000  0.16667000  0.27247000
   0.91748570  0.08356295  0.42213762
   0.83387536  0.16788284  0.49677234
   0.74968403  0.99910128  0.34680520
   0.91667000  0.08333000  0.19748000
   0.00453430  0.25471600  0.57209909
   0.08333000  0.41667000  0.27247000
   0.16647727  0.33448430  0.41946422
   0.08232271  0.41947655  0.49655926
   0.00085557  0.25065914  0.34731833
   0.16667000  0.33333000  0.19748000
   0.24988722  0.25020601  0.57260114
   0.33333000  0.41667000  0.27247000
   0.41704727  0.33274775  0.42265685
   0.33488591  0.41538913  0.49612886
   0.24986683  0.25047754  0.34776598
   0.41667000  0.33333000  0.19748000
   0.50874383  0.25894666  0.57158895
   0.58333000  0.41667000  0.27247000
   0.66587634  0.33452813  0.42044301
   0.58243404  0.41822300  0.49696166
   0.50026720  0.24986220  0.34813997
   0.66667000  0.33333000  0.19748000
   0.75006405  0.25062544  0.57123764
   0.83333000  0.41667000  0.27247000
   0.91727457  0.33380088  0.42244715
   0.83575775  0.41685420  0.49608900
   0.74974651  0.25064696  0.34749602
   0.91667000  0.33333000  0.19748000
   0.99983760  0.50011834  0.57267890
   0.08333000  0.66667000  0.27247000
   0.16712818  0.58278094  0.42270104
   0.08622553  0.66853886  0.49683944
   0.99971350  0.50037050  0.34767352
   0.16667000  0.58333000  0.19748000
   0.25383793  0.50427612  0.57136839
   0.33333000  0.66667000  0.27247000
   0.41554534  0.58412866  0.41859079
   0.33207310  0.66806004  0.49693674
   0.25025932  0.49971487  0.34813098
   0.41667000  0.58333000  0.19748000
   0.49987994  0.50014869  0.57269214
   0.58333000  0.66667000  0.27247000
   0.66712435  0.58276806  0.42265084
   0.58558043  0.66617402  0.49607447
   0.49971985  0.50020362  0.34759187
   0.66667000  0.58333000  0.19748000
   0.75821866  0.50825559  0.57169596
   0.83333000  0.66667000  0.27247000
   0.91559599  0.58428026  0.41868765
   0.83239909  0.66741760  0.49702989
   0.75023430  0.49978259  0.34817180
   0.91667000  0.58333000  0.19748000
   0.99870402  0.74830182  0.57143208
   0.08333000  0.91667000  0.27247000
   0.16606848  0.83312545  0.42246769
   0.08293022  0.91610162  0.49666615
   0.99968306  0.74932804  0.34811181
   0.16667000  0.83333000  0.19748000
   0.24974823  0.75020940  0.57305477
   0.33333000  0.91667000  0.27247000
   0.41694232  0.83276328  0.42264655
   0.33171024  0.91387638  0.49679899
   0.25000837  0.74990164  0.34752943
   0.41667000  0.83333000  0.19748000
   0.50223908  0.75234395  0.57161405
   0.58333000  0.91667000  0.27247000
   0.66476422  0.83263104  0.41991953
   0.58084065  0.91630884  0.49749013
   0.50022359  0.74968001  0.34808532
   0.66667000  0.83333000  0.19748000
   0.74997621  0.75041541  0.57241443
   0.83333000  0.91667000  0.27247000
   0.91660653  0.83221447  0.42248247
   0.83689032  0.91704081  0.49734708
   0.74954772  0.75008743  0.34763119
   0.91667000  0.83333000  0.19748000
   0.58414218  0.42248029  0.64255980
   0.33411046  0.67238252  0.64258018
   0.83373298  0.67131849  0.64245237
   0.58347729  0.92140646  0.64252334
   0.67260153  0.33597620  0.64601956
   0.42227579  0.58573635  0.64620320
   0.92204470  0.58500994  0.64619648
   0.67219738  0.83458046  0.64676904
   0.67379741  0.33081453  0.50428290
   0.42431805  0.58164368  0.50575971
   0.92542665  0.58094110  0.50572144
   0.67588462  0.83058016  0.50437468
   0.33037664  0.17264947  0.64233743
   0.08040728  0.42280376  0.64274453
   0.41879152  0.08609356  0.64622035
   0.16867635  0.33609130  0.64622889
   0.42218541  0.08139410  0.50390418
   0.17212121  0.33179878  0.50502649
   0.63150518  0.88184976  0.58078540
   0.37646058  0.62727235  0.58109875
   0.88396627  0.63390163  0.58136572
   0.62666375  0.37800722  0.58130969
   0.11944228  0.37398643  0.58097887
   0.37194733  0.12669018  0.58116814
Direct configuration=     6
   0.00137996  0.99999392  0.46106463
   0.16667000  0.08333000  0.30996000
   0.24042515  0.99200635  0.46165526
   0.41667000  0.08333000  0.30996000
   0.50115316  0.99865610  0.46250249
   0.66667000  0.08333000  0.30996000
   0.75839676  0.01038856  0.45895265
   0.91667000  0.08333000  0.30996000
   0.99233659  0.24278590  0.46043367
   0.16667000  0.33333000  0.30996000
   0.24950572  0.24826641  0.46158248
   0.41667000  0.33333000  0.30996000
   0.50041660  0.25204601  0.45690861
   0.66667000  0.33333000  0.30996000
   0.75445710  0.24609685  0.46300833
   0.91667000  0.33333000  0.30996000
   0.00056281  0.49824090  0.46091715
   0.16667000  0.58333000  0.30996000
   0.25054710  0.50072503  0.45697659