  70  70   0   0
  0.3502908E+02  0.1159820E-08  0.1159820E-08  0.2104820E-08  0.5000000E-15
  1.000000000000000E-004
  CAR 
 unknown system                          
      2.69097393    -37.63322970  301     -0.20312777      1.00000000
    -37.633  0.0000E+00  0.0000E+00  0.0000E+00  0.0000E+00
    -37.499  0.0000E+00  0.0000E+00  0.0000E+00  0.0000E+00
    -37.364  0.0000E+00  0.0000E+00  0.0000E+00  0.0000E+00
    -37.230  0.0000E+00  0.0000E+00  0.0000E+00  0.0000E+00
    -37.096  0.0000E+00  0.0000E+00  0.0000E+00  0.0000E+00
    -36.961  0.0000E+00  0.0000E+00  0.0000E+00  0.0000E+00
    -36.827  0.0000E+00  0.0000E+00  0.0000E+00  0.0000E+00
    -36.692  0.0000E+00  0.0000E+00  0.0000E+00  0.0000E+00
    -36.558  0.0000E+00  0.0000E+00  0.0000E+00  0.0000E+00
    -36.424  0.0000E+00  0.0000E+00  0.0000E+00  0.0000E+00
    -36.289  0.0000E+00  0.0000E+00  0.0000E+00  0.0000E+00
    -36.155  0.0000E+00  0.0000E+00  0.0000E+00  0.0000E+00
    -36.020  0.3318E-11  0.6122E-11  0.4460E-12  0.8229E-12
    -35.886  0.1503E-03  0.1969E-03  0.2020E-04  0.2646E-04
    -35.751  0.3973E-01  0.4133E-01  0.5360E-02  0.5582E-02
    -35.617  0.1308E+00  0.1293E+00  0.2295E-01  0.2296E-01
    -35.483  0.2098E+00  0.2090E+00  0.5114E-01  0.5104E-01
    -35.348  0.4105E-01  0.4178E-01  0.5666E-01  0.5666E-01
    -35.214  0.4889E-04  0.5683E-04  0.5667E-01  0.5667E-01
    -35.079  0.2810E-12  0.3893E-12  0.5667E-01  0.5667E-01
    -34.945  0.0000E+00  0.0000E+00  0.5667E-01  0.5667E-01
    -34.811  0.0000E+00  0.0000E+00  0.5667E-01  0.5667E-01
    -34.676  0.0000E+00  0.0000E+00  0.5667E-01  0.5667E-01
    -34.542  0.0000E+00  0.0000E+00  0.5667E-01  0.5667E-01
    -34.407  0.0000E+00  0.0000E+00  0.5667E-01  0.5667E-01
    -34.273  0.0000E+00  0.0000E+00  0.5667E-01  0.5667E-01
    -34.138  0.0000E+00  0.0000E+00  0.5667E-01  0.5667E-01
    -34.004  0.2964E-14  0.0000E+00  0.5667E-01  0.5667E-01
    -33.870  0.5288E-05  0.0000E+00  0.5667E-01  0.5667E-01
    -33.735  0.1512E-01  0.0000E+00  0.5870E-01  0.5667E-01
    -33.601  0.9677E-02  0.1377E-17  0.6000E-01  0.5667E-01
    -33.466  0.5573E-06  0.9403E-07  0.6000E-01  0.5667E-01
    -33.332  0.0000E+00  0.6197E-02  0.6000E-01  0.5750E-01
    -33.198  0.0000E+00  0.1858E-01  0.6000E-01  0.6000E-01
    -33.063  0.0000E+00  0.2190E-04  0.6000E-01  0.6000E-01
    -32.929  0.0000E+00  0.5263E-13  0.6000E-01  0.6000E-01
    -32.794  0.0000E+00  0.0000E+00  0.6000E-01  0.6000E-01
    -32.660  0.0000E+00  0.0000E+00  0.6000E-01  0.6000E-01
    -32.525  0.0000E+00  0.0000E+00  0.6000E-01  0.6000E-01
    -32.391  0.0000E+00  0.0000E+00  0.6000E-01  0.6000E-01
    -32.257  0.0000E+00  0.0000E+00  0.6000E-01  0.6000E-01
    -32.122  0.0000E+00  0.0000E+00  0.6000E-01  0.6000E-01
    -31.988  0.0000E+00  0.0000E+00  0.6000E-01  0.6000E-01
    -31.853  0.0000E+00  0.0000E+00  0.6000E-01  0.6000E-01
    -31.719  0.0000E+00  0.0000E+00  0.6000E-01  0.6000E-01
    -31.585  0.0000E+00  0.0000E+00  0.6000E-01  0.6000E-01
    -31.450  0.0000E+00  0.0000E+00  0.6000E-01  0.6000E-01
    -31.316  0.0000E+00  0.0000E+00  0.6000E-01  0.6000E-01
    -31.181  0.0000E+00  0.0000E+00  0.6000E-01  0.6000E-01
    -31.047  0.0000E+00  0.0000E+00  0.6000E-01  0.6000E-01
    -30.913  0.0000E+00  0.0000E+00  0.6000E-01  0.6000E-01
    -30.778  0.0000E+00  0.0000E+00  0.6000E-01  0.6000E-01
    -30.644  0.0000E+00  0.0000E+00  0.6000E-01  0.6000E-01
    -30.509  0.0000E+00  0.0000E+00  0.6000E-01  0.6000E-01
    -30.375  0.0000E+00  0.0000E+00  0.6000E-01  0.6000E-01
    -30.240  0.0000E+00  0.0000E+00  0.6000E-01  0.6000E-01
    -30.106  0.0000E+00  0.0000E+00  0.6000E-01  0.6000E-01
    -29.972  0.0000E+00  0.0000E+00  0.6000E-01  0.6000E-01
    -29.837  0.0000E+00  0.0000E+00  0.6000E-01  0.6000E-01
    -29.703  0.0000E+00  0.0000E+00  0.6000E-01  0.6000E-01
    -29.568  0.0000E+00  0.0000E+00  0.6000E-01  0.6000E-01
    -29.434  0.0000E+00  0.0000E+00  0.6000E-01  0.6000E-01
    -29.300  0.0000E+00  0.0000E+00  0.6000E-01  0.6000E-01
    -29.165  0.0000E+00  0.0000E+00  0.6000E-01  0.6000E-01
    -29.031  0.0000E+00  0.0000E+00  0.6000E-01  0.6000E-01
    -28.896  0.0000E+00  0.0000E+00  0.6000E-01  0.6000E-01
    -28.762  0.0000E+00  0.0000E+00  0.6000E-01  0.6000E-01
    -28.627  0.0000E+00  0.0000E+00  0.6000E-01  0.6000E-01
    -28.493  0.0000E+00  0.0000E+00  0.6000E-01  0.6000E-01
    -28.359  0.0000E+00  0.0000E+00  0.6000E-01  0.6000E-01
    -28.224  0.0000E+00  0.0000E+00  0.6000E-01  0.6000E-01
    -28.090  0.0000E+00  0.0000E+00  0.6000E-01  0.6000E-01
    -27.955  0.0000E+00  0.0000E+00  0.6000E-01  0.6000E-01
    -27.821  0.0000E+00  0.0000E+00  0.6000E-01  0.6000E-01
    -27.687  0.0000E+00  0.0000E+00  0.6000E-01  0.6000E-01
    -27.552  0.0000E+00  0.0000E+00  0.6000E-01  0.6000E-01
    -27.418  0.0000E+00  0.0000E+00  0.6000E-01  0.6000E-01
    -27.283  0.0000E+00  0.0000E+00  0.6000E-01  0.6000E-01
    -27.149  0.0000E+00  0.0000E+00  0.6000E-01  0.6000E-01
    -27.015  0.0000E+00  0.0000E+00  0.6000E-01  0.6000E-01
    -26.880  0.0000E+00  0.0000E+00  0.6000E-01  0.6000E-01
    -26.746  0.0000E+00  0.0000E+00  0.6000E-01  0.6000E-01
    -26.611  0.0000E+00  0.0000E+00  0.6000E-01  0.6000E-01
    -26.477  0.0000E+00  0.0000E+00  0.6000E-01  0.6000E-01
    -26.342  0.0000E+00  0.0000E+00  0.6000E-01  0.6000E-01
    -26.208  0.0000E+00  0.0000E+00  0.6000E-01  0.6000E-01
    -26.074  0.0000E+00  0.0000E+00  0.6000E-01  0.6000E-01
    -25.939  0.0000E+00  0.0000E+00  0.6000E-01  0.6000E-01
    -25.805  0.0000E+00  0.0000E+00  0.6000E-01  0.6000E-01
    -25.670  0.0000E+00  0.0000E+00  0.6000E-01  0.6000E-01
    -25.536  0.0000E+00  0.0000E+00  0.6000E-01  0.6000E-01
    -25.402  0.0000E+00  0.0000E+00  0.6000E-01  0.6000E-01
    -25.267  0.0000E+00  0.0000E+00  0.6000E-01  0.6000E-01
    -25.133  0.0000E+00  0.0000E+00  0.6000E-01  0.6000E-01
    -24.998  0.0000E+00  0.0000E+00  0.6000E-01  0.6000E-01
    -24.864  0.0000E+00  0.0000E+00  0.6000E-01  0.6000E-01
    -24.729  0.0000E+00  0.0000E+00  0.6000E-01  0.6000E-01
    -24.595  0.0000E+00  0.0000E+00  0.6000E-01  0.6000E-01
    -24.461  0.0000E+00  0.0000E+00  0.6000E-01  0.6000E-01
    -24.326  0.0000E+00  0.0000E+00  0.6000E-01  0.6000E-01
    -24.192  0.0000E+00  0.0000E+00  0.6000E-01  0.6000E-01
    -24.057  0.0000E+00  0.0000E+00  0.6000E-01  0.6000E-01
    -23.923  0.0000E+00  0.0000E+00  0.6000E-01  0.6000E-01
    -23.789  0.0000E+00  0.0000E+00  0.6000E-01  0.6000E-01
    -23.654  0.0000E+00  0.0000E+00  0.6000E-01  0.6000E-01
    -23.520  0.0000E+00  0.0000E+00  0.6000E-01  0.6000E-01
    -23.385  0.0000E+00  0.0000E+00  0.6000E-01  0.6000E-01
    -23.251  0.0000E+00  0.0000E+00  0.6000E-01  0.6000E-01
    -23.117  0.0000E+00  0.0000E+00  0.6000E-01  0.6000E-01
    -22.982  0.0000E+00  0.0000E+00  0.6000E-01  0.6000E-01
    -22.848  0.0000E+00  0.0000E+00  0.6000E-01  0.6000E-01
    -22.713  0.0000E+00  0.0000E+00  0.6000E-01  0.6000E-01
    -22.579  0.0000E+00  0.0000E+00  0.6000E-01  0.6000E-01
    -22.444  0.0000E+00  0.0000E+00  0.6000E-01  0.6000E-01
    -22.310  0.0000E+00  0.0000E+00  0.6000E-01  0.6000E-01
    -22.176  0.0000E+00  0.0000E+00  0.6000E-01  0.6000E-01
    -22.041  0.0000E+00  0.0000E+00  0.6000E-01  0.6000E-01
    -21.907  0.0000E+00  0.0000E+00  0.6000E-01  0.6000E-01
    -21.772  0.0000E+00  0.0000E+00  0.6000E-01  0.6000E-01
    -21.638  0.0000E+00  0.0000E+00  0.6000E-01  0.6000E-01
    -21.504  0.0000E+00  0.0000E+00  0.6000E-01  0.6000E-01
    -21.369  0.0000E+00  0.0000E+00  0.6000E-01  0.6000E-01
    -21.235  0.0000E+00  0.0000E+00  0.6000E-01  0.6000E-01
    -21.100  0.7531E-09  0.1973E-09  0.6000E-01  0.6000E-01
    -20.966  0.1319E-02  0.7981E-03  0.6018E-01  0.6011E-01
    -20.831  0.3003E-01  0.2906E-01  0.6421E-01  0.6401E-01
    -20.697  0.9945E-01  0.9510E-01  0.7758E-01  0.7680E-01
    -20.563  0.4439E-01  0.4685E-01  0.8355E-01  0.8309E-01
    -20.428  0.7242E-01  0.6676E-01  0.9328E-01  0.9207E-01
    -20.294  0.8202E-01  0.8818E-01  0.1043E+00  0.1039E+00
    -20.159  0.1020E+00  0.9646E-01  0.1180E+00  0.1169E+00
    -20.025  0.6886E-01  0.7474E-01  0.1273E+00  0.1269E+00
    -19.891  0.4035E-01  0.2266E-01  0.1327E+00  0.1300E+00
    -19.756  0.5491E-02  0.1016E-02  0.1334E+00  0.1301E+00
    -19.622  0.9161E-01  0.9524E-01  0.1457E+00  0.1429E+00
    -19.487  0.5234E-01  0.6488E-01  0.1528E+00  0.1516E+00
    -19.353  0.5520E-01  0.5012E-01  0.1602E+00  0.1584E+00
    -19.219  0.5527E-01  0.1434E-01  0.1676E+00  0.1603E+00
    -19.084  0.1763E-01  0.2241E-01  0.1700E+00  0.1633E+00
    -18.950  0.1380E-01  0.1915E-01  0.1719E+00  0.1659E+00
    -18.815  0.2669E-01  0.4338E-01  0.1754E+00  0.1717E+00
    -18.681  0.1066E-01  0.3109E-01  0.1769E+00  0.1759E+00
    -18.546  0.3788E-01  0.4166E-01  0.1820E+00  0.1815E+00
    -18.412  0.1038E-01  0.1383E-01  0.1834E+00  0.1834E+00
    -18.278  0.4368E-01  0.4049E-01  0.1892E+00  0.1888E+00
    -18.143  0.1622E+00  0.1555E+00  0.2110E+00  0.2097E+00
    -18.009  0.1755E+00  0.1697E+00  0.2346E+00  0.2325E+00
    -17.874  0.1821E+00  0.1958E+00  0.2591E+00  0.2588E+00
    -17.740  0.9708E-01  0.9413E-01  0.2722E+00  0.2715E+00
    -17.606  0.6016E-01  0.6385E-01  0.2802E+00  0.2801E+00
    -17.471  0.4808E-01  0.4649E-01  0.2867E+00  0.2863E+00
    -17.337  0.5319E-01  0.2931E-01  0.2939E+00  0.2903E+00
    -17.202  0.2089E-01  0.4668E-01  0.2967E+00  0.2965E+00
    -17.068  0.1678E-04  0.9990E-03  0.2967E+00  0.2967E+00
    -16.933  0.5322E-04  0.2009E-04  0.2967E+00  0.2967E+00
    -16.799  0.4046E-01  0.3481E-01  0.3021E+00  0.3013E+00
    -16.665  0.5967E-01  0.6423E-01  0.3101E+00  0.3100E+00
    -16.530  0.6017E-01  0.3623E-01  0.3182E+00  0.3149E+00
    -16.396  0.1394E-01  0.3825E-01  0.3201E+00  0.3200E+00
    -16.261  0.2338E-01  0.4007E-02  0.3232E+00  0.3205E+00
    -16.127  0.7230E-03  0.2078E-01  0.3233E+00  0.3233E+00
    -15.993  0.1624E-01  0.8377E-02  0.3255E+00  0.3245E+00
    -15.858  0.3254E-01  0.3880E-01  0.3299E+00  0.3297E+00
    -15.724  0.7425E-01  0.7503E-01  0.3399E+00  0.3398E+00
    -15.589  0.6169E-01  0.4975E-01  0.3482E+00  0.3464E+00
    -15.455  0.6659E-01  0.5894E-01  0.3571E+00  0.3544E+00
    -15.321  0.4716E-01  0.4867E-01  0.3635E+00  0.3609E+00
    -15.186  0.4283E-01  0.5780E-01  0.3692E+00  0.3687E+00
    -15.052  0.6515E-01  0.5725E-01  0.3780E+00  0.3764E+00
    -14.917  0.6717E-01  0.7263E-01  0.3870E+00  0.3861E+00
    -14.783  0.2227E-01  0.2739E-01  0.3900E+00  0.3898E+00
    -14.648  0.8762E-04  0.1404E-02  0.3900E+00  0.3900E+00
    -14.514  0.1026E-11  0.8951E-09  0.3900E+00  0.3900E+00
    -14.380  0.0000E+00  0.0000E+00  0.3900E+00  0.3900E+00
    -14.245  0.0000E+00  0.0000E+00  0.3900E+00  0.3900E+00
    -14.111  0.0000E+00  0.0000E+00  0.3900E+00  0.3900E+00
    -13.976  0.0000E+00  0.0000E+00  0.3900E+00  0.3900E+00
    -13.842  0.0000E+00  0.0000E+00  0.3900E+00  0.3900E+00
    -13.708  0.0000E+00  0.0000E+00  0.3900E+00  0.3900E+00
    -13.573  0.0000E+00  0.0000E+00  0.3900E+00  0.3900E+00
    -13.439  0.0000E+00  0.0000E+00  0.3900E+00  0.3900E+00
    -13.304  0.0000E+00  0.0000E+00  0.3900E+00  0.3900E+00
    -13.170  0.0000E+00  0.0000E+00  0.3900E+00  0.3900E+00
    -13.035  0.0000E+00  0.0000E+00  0.3900E+00  0.3900E+00
    -12.901  0.0000E+00  0.0000E+00  0.3900E+00  0.3900E+00
    -12.767  0.0000E+00  0.0000E+00  0.3900E+00  0.3900E+00
    -12.632  0.0000E+00  0.0000E+00  0.3900E+00  0.3900E+00
    -12.498  0.0000E+00  0.0000E+00  0.3900E+00  0.3900E+00
    -12.363  0.0000E+00  0.0000E+00  0.3900E+00  0.3900E+00
    -12.229  0.0000E+00  0.0000E+00  0.3900E+00  0.3900E+00
    -12.095  0.0000E+00  0.0000E+00  0.3900E+00  0.3900E+00
    -11.960  0.0000E+00  0.0000E+00  0.3900E+00  0.3900E+00
    -11.826  0.0000E+00  0.0000E+00  0.3900E+00  0.3900E+00
    -11.691  0.0000E+00  0.0000E+00  0.3900E+00  0.3900E+00
    -11.557  0.0000E+00  0.0000E+00  0.3900E+00  0.3900E+00
    -11.422  0.0000E+00  0.0000E+00  0.3900E+00  0.3900E+00
    -11.288  0.0000E+00  0.0000E+00  0.3900E+00  0.3900E+00
    -11.154  0.0000E+00  0.0000E+00  0.3900E+00  0.3900E+00
    -11.019  0.0000E+00  0.0000E+00  0.3900E+00  0.3900E+00
    -10.885  0.0000E+00  0.0000E+00  0.3900E+00  0.3900E+00
    -10.750  0.0000E+00  0.0000E+00  0.3900E+00  0.3900E+00
    -10.616  0.0000E+00  0.0000E+00  0.3900E+00  0.3900E+00
    -10.482  0.0000E+00  0.0000E+00  0.3900E+00  0.3900E+00
    -10.347  0.0000E+00  0.0000E+00  0.3900E+00  0.3900E+00
    -10.213  0.0000E+00  0.0000E+00  0.3900E+00  0.3900E+00
    -10.078  0.0000E+00  0.0000E+00  0.3900E+00  0.3900E+00
     -9.944  0.0000E+00  0.0000E+00  0.3900E+00  0.3900E+00
     -9.810  0.0000E+00  0.0000E+00  0.3900E+00  0.3900E+00
     -9.675  0.0000E+00  0.0000E+00  0.3900E+00  0.3900E+00
     -9.541  0.0000E+00  0.0000E+00  0.3900E+00  0.3900E+00
     -9.406  0.0000E+00  0.0000E+00  0.3900E+00  0.3900E+00
     -9.272  0.0000E+00  0.0000E+00  0.3900E+00  0.3900E+00
     -9.137  0.0000E+00  0.0000E+00  0.3900E+00  0.3900E+00
     -9.003  0.0000E+00  0.0000E+00  0.3900E+00  0.3900E+00
     -8.869  0.0000E+00  0.0000E+00  0.3900E+00  0.3900E+00
     -8.734  0.0000E+00  0.0000E+00  0.3900E+00  0.3900E+00
     -8.600  0.4989E-09  0.4439E-09  0.3900E+00  0.3900E+00
     -8.465  0.1133E-02  0.1085E-02  0.3902E+00  0.3901E+00
     -8.331  0.2565E-01  0.2552E-01  0.3936E+00  0.3936E+00
     -8.197  0.2330E-01  0.2283E-01  0.3967E+00  0.3966E+00
     -8.062  0.3058E-01  0.1693E-03  0.4008E+00  0.3967E+00
     -7.928  0.1852E-01  0.1023E-03  0.4033E+00  0.3967E+00
     -7.793  0.1521E-04  0.2483E-01  0.4033E+00  0.4000E+00
     -7.659  0.2481E-13  0.2457E-01  0.4033E+00  0.4033E+00
     -7.524  0.0000E+00  0.9473E-04  0.4033E+00  0.4033E+00
     -7.390  0.0000E+00  0.1220E-11  0.4033E+00  0.4033E+00
     -7.256  0.2671E-15  0.3001E-15  0.4033E+00  0.4033E+00
     -7.121  0.1531E-05  0.1626E-05  0.4033E+00  0.4033E+00
     -6.987  0.1204E-01  0.1218E-01  0.4050E+00  0.4050E+00
     -6.852  0.2818E-01  0.2578E-01  0.4087E+00  0.4084E+00
     -6.718  0.2639E-01  0.1390E-01  0.4123E+00  0.4103E+00
     -6.584  0.7675E-01  0.3739E-01  0.4226E+00  0.4153E+00
     -6.449  0.5421E-01  0.3841E-01  0.4299E+00  0.4205E+00
     -6.315  0.3350E-01  0.4315E-01  0.4344E+00  0.4263E+00
     -6.180  0.5707E-01  0.3303E-01  0.4421E+00  0.4307E+00
     -6.046  0.3170E-01  0.6580E-01  0.4463E+00  0.4396E+00
     -5.912  0.4908E-01  0.5457E-01  0.4529E+00  0.4469E+00
     -5.777  0.7667E-01  0.6707E-01  0.4632E+00  0.4559E+00
     -5.643  0.4948E-01  0.3490E-01  0.4699E+00  0.4606E+00
     -5.508  0.2359E-01  0.4182E-01  0.4730E+00  0.4662E+00
     -5.374  0.5481E-02  0.3146E-01  0.4738E+00  0.4705E+00
     -5.239  0.9417E-01  0.7419E-01  0.4864E+00  0.4804E+00
     -5.105  0.9269E-01  0.8980E-01  0.4989E+00  0.4925E+00
     -4.971  0.6684E-01  0.5872E-01  0.5079E+00  0.5004E+00
     -4.836  0.1474E+00  0.1428E+00  0.5277E+00  0.5196E+00
     -4.702  0.1123E+00  0.1118E+00  0.5428E+00  0.5346E+00
     -4.567  0.9408E-01  0.1010E+00  0.5554E+00  0.5482E+00
     -4.433  0.1249E+00  0.1311E+00  0.5722E+00  0.5658E+00
     -4.299  0.1093E+00  0.9491E-01  0.5869E+00  0.5786E+00
     -4.164  0.8391E-01  0.9545E-01  0.5982E+00  0.5914E+00
     -4.030  0.8468E-01  0.8634E-01  0.6096E+00  0.6030E+00
     -3.895  0.1332E+00  0.1271E+00  0.6275E+00  0.6201E+00
     -3.761  0.1100E+00  0.1357E+00  0.6423E+00  0.6383E+00
     -3.626  0.1232E+00  0.1163E+00  0.6588E+00  0.6540E+00
     -3.492  0.1338E+00  0.1301E+00  0.6768E+00  0.6715E+00
     -3.358  0.1307E+00  0.1394E+00  0.6944E+00  0.6902E+00
     -3.223  0.1071E+00  0.1009E+00  0.7088E+00  0.7038E+00
     -3.089  0.6957E-01  0.8620E-01  0.7181E+00  0.7154E+00
     -2.954  0.1158E+00  0.1200E+00  0.7337E+00  0.7315E+00
     -2.820  0.1411E+00  0.1281E+00  0.7527E+00  0.7487E+00
     -2.686  0.4406E-01  0.4517E-01  0.7586E+00  0.7548E+00
     -2.551  0.1684E+00  0.1617E+00  0.7812E+00  0.7765E+00
     -2.417  0.1705E+00  0.1731E+00  0.8042E+00  0.7998E+00
     -2.282  0.9440E-01  0.9901E-01  0.8168E+00  0.8131E+00
     -2.148  0.1487E+00  0.1118E+00  0.8368E+00  0.8281E+00
     -2.014  0.9668E-01  0.9922E-01  0.8498E+00  0.8414E+00
     -1.879  0.2422E-01  0.2871E-01  0.8531E+00  0.8453E+00
     -1.745  0.4353E-01  0.3650E-01  0.8589E+00  0.8502E+00
     -1.610  0.9660E-01  0.4633E-01  0.8719E+00  0.8564E+00
     -1.476  0.5440E-01  0.3350E-01  0.8792E+00  0.8609E+00
     -1.341  0.5281E-01  0.8977E-01  0.8863E+00  0.8730E+00
     -1.207  0.3795E-01  0.5424E-01  0.8914E+00  0.8803E+00
     -1.073  0.6425E-01  0.9333E-01  0.9001E+00  0.8928E+00
     -0.938  0.6360E-01  0.4469E-01  0.9086E+00  0.8988E+00
     -0.804  0.1978E-01  0.1313E-01  0.9113E+00  0.9006E+00
     -0.669  0.2616E-01  0.2026E-01  0.9148E+00  0.9033E+00
     -0.535  0.2697E-01  0.2089E-03  0.9184E+00  0.9034E+00
     -0.401  0.3636E-01  0.2231E-01  0.9233E+00  0.9064E+00
     -0.266  0.2412E-03  0.2325E-02  0.9233E+00  0.9067E+00
     -0.132  0.1340E-10  0.7289E-08  0.9233E+00  0.9067E+00
      0.003  0.1486E-03  0.2295E-02  0.9234E+00  0.9070E+00
      0.137  0.2651E-01  0.6075E-01  0.9269E+00  0.9151E+00
      0.272  0.1064E+00  0.1036E+00  0.9412E+00  0.9291E+00
      0.406  0.3437E+00  0.3415E+00  0.9874E+00  0.9750E+00
      0.540  0.7162E+00  0.7132E+00  0.1084E+01  0.1071E+01
      0.675  0.7927E+00  0.7994E+00  0.1190E+01  0.1178E+01
      0.809  0.5592E+00  0.5759E+00  0.1265E+01  0.1256E+01
      0.944  0.1086E+00  0.1806E+00  0.1280E+01  0.1280E+01
      1.078  0.2091E-04  0.2950E-03  0.1280E+01  0.1280E+01
      1.212  0.1066E-13  0.6464E-11  0.1280E+01  0.1280E+01
      1.347  0.0000E+00  0.0000E+00  0.1280E+01  0.1280E+01
      1.481  0.0000E+00  0.0000E+00  0.1280E+01  0.1280E+01
      1.616  0.0000E+00  0.0000E+00  0.1280E+01  0.1280E+01
      1.750  0.0000E+00  0.0000E+00  0.1280E+01  0.1280E+01
      1.884  0.0000E+00  0.0000E+00  0.1280E+01  0.1280E+01
      2.019  0.0000E+00  0.0000E+00  0.1280E+01  0.1280E+01
      2.153  0.0000E+00  0.0000E+00  0.1280E+01  0.1280E+01
      2.288  0.0000E+00  0.0000E+00  0.1280E+01  0.1280E+01
      2.422  0.0000E+00  0.0000E+00  0.1280E+01  0.1280E+01
      2.557  0.0000E+00  0.0000E+00  0.1280E+01  0.1280E+01
      2.691  0.0000E+00  0.0000E+00  0.1280E+01  0.1280E+01
