       N       E                     dE             d eps       ncg     rms          rms(c)
DAV:   1     0.971277444812E+04    0.97128E+04   -0.24816E+05  1536   0.155E+03
DAV:   2     0.266125690775E+04   -0.70515E+04   -0.62060E+04  1920   0.415E+02
DAV:   3    -0.296020822342E+03   -0.29573E+04   -0.28498E+04  2400   0.245E+02
DAV:   4    -0.637613960420E+03   -0.34159E+03   -0.33586E+03  2208   0.934E+01
DAV:   5    -0.655801782677E+03   -0.18188E+02   -0.18055E+02  2736   0.242E+01    0.137E+02
DAV:   6    -0.514464236061E+03    0.14134E+03   -0.14209E+03  2160   0.603E+01    0.928E+01
DAV:   7    -0.534773375725E+03   -0.20309E+02   -0.20947E+03  2544   0.140E+02    0.859E+01
DAV:   8    -0.566225844952E+03   -0.31452E+02   -0.71969E+02  2352   0.539E+01    0.617E+01
DAV:   9    -0.521900738149E+03    0.44325E+02   -0.12032E+02  2544   0.262E+01    0.415E+01
DAV:  10    -0.504445409502E+03    0.17455E+02   -0.11530E+02  2400   0.173E+01    0.306E+01
DAV:  11    -0.492107939978E+03    0.12337E+02   -0.30547E+01  2352   0.113E+01    0.185E+01
DAV:  12    -0.490028905183E+03    0.20790E+01   -0.24012E+01  2400   0.106E+01    0.160E+01
DAV:  13    -0.489646823820E+03    0.38208E+00   -0.14511E+01  2784   0.564E+00    0.133E+01
DAV:  14    -0.489954035156E+03   -0.30721E+00   -0.48820E+00  2688   0.308E+00    0.108E+01
DAV:  15    -0.491726570898E+03   -0.17725E+01   -0.11304E+00  2544   0.210E+00    0.834E+00
DAV:  16    -0.497002281248E+03   -0.52757E+01   -0.41206E+00  2400   0.398E+00    0.687E+00
DAV:  17    -0.501394104047E+03   -0.43918E+01   -0.36549E+00  2448   0.309E+00    0.550E+00
DAV:  18    -0.503358729568E+03   -0.19646E+01   -0.11207E+00  2400   0.254E+00    0.417E+00
DAV:  19    -0.506010378326E+03   -0.26516E+01   -0.15003E+00  2448   0.195E+00    0.321E+00
DAV:  20    -0.507936696665E+03   -0.19263E+01   -0.86680E-01  2352   0.132E+00    0.264E+00
DAV:  21    -0.509405677188E+03   -0.14690E+01   -0.58504E-01  2160   0.101E+00    0.252E+00
DAV:  22    -0.509931930009E+03   -0.52625E+00   -0.21277E-01  2544   0.822E-01    0.182E+00
DAV:  23    -0.510969882539E+03   -0.10380E+01   -0.52753E-01  2256   0.967E-01    0.170E+00
DAV:  24    -0.511548712884E+03   -0.57883E+00   -0.23266E-01  2304   0.908E-01    0.893E-01
DAV:  25    -0.511935065596E+03   -0.38635E+00   -0.11269E-01  2352   0.479E-01    0.720E-01
DAV:  26    -0.511990064823E+03   -0.54999E-01   -0.23839E-02  2736   0.266E-01    0.623E-01
DAV:  27    -0.512005954514E+03   -0.15890E-01   -0.14922E-02  2304   0.217E-01    0.346E-01
DAV:  28    -0.512024496129E+03   -0.18542E-01   -0.63390E-03  2448   0.162E-01    0.242E-01
DAV:  29    -0.512045311664E+03   -0.20816E-01   -0.32845E-03  2400   0.124E-01    0.171E-01
DAV:  30    -0.512070723798E+03   -0.25412E-01   -0.19387E-03  2256   0.895E-02    0.155E-01
DAV:  31    -0.512092451975E+03   -0.21728E-01   -0.13975E-03  2448   0.814E-02    0.122E-01
DAV:  32    -0.512112775112E+03   -0.20323E-01   -0.16768E-03  2256   0.718E-02    0.946E-02
DAV:  33    -0.512123292912E+03   -0.10518E-01   -0.90345E-04  2160   0.580E-02    0.551E-02
DAV:  34    -0.512127429933E+03   -0.41370E-02   -0.29651E-04  2256   0.292E-02    0.392E-02
DAV:  35    -0.512130841119E+03   -0.34112E-02   -0.19030E-04  2544   0.197E-02    0.285E-02
DAV:  36    -0.512134011653E+03   -0.31705E-02   -0.20115E-04  2064   0.163E-02    0.275E-02
DAV:  37    -0.512136334766E+03   -0.23231E-02   -0.18953E-04  2064   0.139E-02    0.320E-02
DAV:  38    -0.512136941672E+03   -0.60691E-03   -0.37804E-05  2256   0.109E-02    0.171E-02
DAV:  39    -0.512137637391E+03   -0.69572E-03   -0.44006E-05  2064   0.946E-03    0.112E-02
DAV:  40    -0.512138088735E+03   -0.45134E-03   -0.26051E-05  1968   0.582E-03    0.705E-03
DAV:  41    -0.512138288651E+03   -0.19992E-03   -0.87275E-06  1872   0.368E-03    0.712E-03
DAV:  42    -0.512138404109E+03   -0.11546E-03   -0.53560E-06  1776   0.321E-03    0.455E-03
DAV:  43    -0.512138448254E+03   -0.44145E-04   -0.11091E-06  1584   0.208E-03    0.410E-03
DAV:  44    -0.512138479764E+03   -0.31510E-04   -0.75963E-07  1536   0.171E-03    0.263E-03
DAV:  45    -0.512138529155E+03   -0.49391E-04   -0.18832E-06  1632   0.204E-03    0.182E-03
DAV:  46    -0.512138555706E+03   -0.26551E-04   -0.10546E-06  1536   0.141E-03    0.163E-03
DAV:  47    -0.512138563778E+03   -0.80722E-05   -0.23381E-07  1296   0.101E-03    0.134E-03
DAV:  48    -0.512138572809E+03   -0.90314E-05   -0.39373E-07  1392   0.888E-04    0.106E-03
DAV:  49    -0.512138579601E+03   -0.67921E-05   -0.41145E-07  1488   0.105E-03    0.105E-03
DAV:  50    -0.512138581403E+03   -0.18018E-05   -0.15555E-07  1248   0.725E-04    0.867E-04
DAV:  51    -0.512138581659E+03   -0.25580E-06   -0.54171E-08  1056   0.605E-04
   1 F= -.51213858E+03 E0= -.51212360E+03  d E =-.512139E+03  mag=     4.1105
       N       E                     dE             d eps       ncg     rms          rms(c)
DAV:   1    -0.503512442800E+03    0.86261E+01   -0.18866E+03  1632   0.710E+01    0.223E+01
DAV:   2    -0.512939433681E+03   -0.94270E+01   -0.11017E+02  2400   0.211E+01    0.250E+01
DAV:   3    -0.513044889820E+03   -0.10546E+00   -0.92153E+00  2784   0.631E+00    0.183E+01
DAV:   4    -0.514822198750E+03   -0.17773E+01   -0.10300E+01  2544   0.655E+00    0.382E+01
DAV:   5    -0.512636702728E+03    0.21855E+01   -0.10886E+02  2400   0.115E+01    0.133E+01
DAV:   6    -0.513319581242E+03   -0.68288E+00   -0.11643E+01  2688   0.723E+00    0.101E+01
DAV:   7    -0.513161467049E+03    0.15811E+00   -0.11841E+00  2544   0.249E+00    0.668E+00
DAV:   8    -0.513258301311E+03   -0.96834E-01   -0.67672E-01  2400   0.184E+00    0.513E+00
DAV:   9    -0.513115889690E+03    0.14241E+00   -0.47061E-01  2544   0.172E+00    0.394E+00
DAV:  10    -0.513010915115E+03    0.10497E+00   -0.20543E-01  2400   0.908E-01    0.333E+00
DAV:  11    -0.512993913579E+03    0.17002E-01   -0.12313E-01  2640   0.776E-01    0.309E+00
DAV:  12    -0.512947588039E+03    0.46326E-01   -0.79172E-02  2448   0.694E-01    0.269E+00
DAV:  13    -0.512917224452E+03    0.30364E-01   -0.57039E-02  2544   0.505E-01    0.242E+00
DAV:  14    -0.512896492726E+03    0.20732E-01   -0.29441E-02  2640   0.380E-01    0.199E+00
DAV:  15    -0.512887199911E+03    0.92928E-02   -0.14864E-02  2496   0.271E-01    0.174E+00
DAV:  16    -0.512894095249E+03   -0.68953E-02   -0.46834E-03  2784   0.125E-01    0.164E+00
DAV:  17    -0.512898187252E+03   -0.40920E-02   -0.64669E-03  2544   0.155E-01    0.155E+00
DAV:  18    -0.512891757069E+03    0.64302E-02   -0.89037E-03  2400   0.184E-01    0.158E+00
DAV:  19    -0.512889371022E+03    0.23860E-02   -0.11517E-02  2592   0.222E-01    0.155E+00
DAV:  20    -0.512889508436E+03   -0.13741E-03   -0.26470E-02  2448   0.326E-01    0.147E+00
DAV:  21    -0.512890140286E+03   -0.63185E-03   -0.22735E-02  2640   0.297E-01    0.133E+00
DAV:  22    -0.512890620598E+03   -0.48031E-03   -0.20119E-03  2544   0.728E-02    0.133E+00
DAV:  23    -0.512891515406E+03   -0.89481E-03   -0.77881E-04  2784   0.561E-02    0.132E+00
DAV:  24    -0.512890108744E+03    0.14067E-02   -0.44162E-03  2640   0.181E-01    0.129E+00
DAV:  25    -0.512889790266E+03    0.31848E-03   -0.21569E-03  2400   0.866E-02    0.132E+00
DAV:  26    -0.512891274199E+03   -0.14839E-02   -0.35288E-03  2736   0.114E-01    0.126E+00
DAV:  27    -0.512893710196E+03   -0.24360E-02   -0.15429E-02  2592   0.288E-01    0.122E+00
DAV:  28    -0.512892710418E+03    0.99978E-03   -0.24738E-03  2400   0.106E-01    0.124E+00
DAV:  29    -0.512894060979E+03   -0.13506E-02   -0.12707E-02  2784   0.307E-01    0.118E+00
DAV:  30    -0.512909943231E+03   -0.15882E-01   -0.13906E-01  2496   0.881E-01    0.121E+00
DAV:  31    -0.512949919182E+03   -0.39976E-01   -0.30082E-01  2592   0.990E-01    0.253E+00
DAV:  32    -0.512934201094E+03    0.15718E-01   -0.43396E-02  2592   0.363E-01    0.191E+00
DAV:  33    -0.512931606015E+03    0.25951E-02   -0.79308E-03  2688   0.164E-01    0.165E+00
DAV:  34    -0.512935438000E+03   -0.38320E-02   -0.16748E-02  2496   0.158E-01    0.189E+00
DAV:  35    -0.512920295331E+03    0.15143E-01   -0.56046E-02  2448   0.412E-01    0.113E+00
DAV:  36    -0.512915424238E+03    0.48711E-02   -0.54010E-02  2640   0.407E-01    0.812E-01
DAV:  37    -0.512917077526E+03   -0.16533E-02   -0.71327E-03  2640   0.155E-01    0.970E-01
DAV:  38    -0.512917674158E+03   -0.59663E-03   -0.10585E-03  2832   0.510E-02    0.103E+00
DAV:  39    -0.512917271019E+03    0.40314E-03   -0.98189E-04  2592   0.569E-02    0.104E+00
DAV:  40    -0.512916908223E+03    0.36280E-03   -0.95036E-04  2688   0.602E-02    0.987E-01
DAV:  41    -0.512917995104E+03   -0.10869E-02   -0.16724E-03  2400   0.613E-02    0.109E+00
DAV:  42    -0.512917346134E+03    0.64897E-03   -0.42075E-04  2400   0.341E-02    0.104E+00
DAV:  43    -0.512916806845E+03    0.53929E-03   -0.17085E-03  2448   0.873E-02    0.104E+00
DAV:  44    -0.512914329202E+03    0.24776E-02   -0.13967E-02  2496   0.195E-01    0.856E-01
DAV:  45    -0.512912312954E+03    0.20162E-02   -0.22267E-02  2592   0.227E-01    0.647E-01
DAV:  46    -0.512911909186E+03    0.40377E-03   -0.12932E-02  2448   0.145E-01    0.496E-01
DAV:  47    -0.512914223687E+03   -0.23145E-02   -0.65847E-03  2784   0.165E-01    0.517E-01
DAV:  48    -0.512914290904E+03   -0.67217E-04   -0.56912E-04  2160   0.410E-02    0.520E-01
DAV:  49    -0.512914284981E+03    0.59224E-05   -0.43310E-05  3072   0.104E-02    0.518E-01
DAV:  50    -0.512914240900E+03    0.44081E-04   -0.26037E-05  2400   0.844E-03    0.514E-01
DAV:  51    -0.512914273529E+03   -0.32629E-04   -0.27085E-04  2352   0.182E-02    0.503E-01
DAV:  52    -0.512914933861E+03   -0.66033E-03   -0.14526E-03  2448   0.742E-02    0.548E-01
DAV:  53    -0.512914221832E+03    0.71203E-03   -0.11402E-03  2448   0.558E-02    0.562E-01
DAV:  54    -0.512913788380E+03    0.43345E-03   -0.20794E-03  2400   0.633E-02    0.537E-01
DAV:  55    -0.512913702264E+03    0.86116E-04   -0.13886E-04  2592   0.177E-02    0.538E-01
DAV:  56    -0.512913670529E+03    0.31735E-04   -0.16359E-05  2688   0.773E-03    0.536E-01
DAV:  57    -0.512913688668E+03   -0.18139E-04   -0.17461E-03  2448   0.694E-02    0.511E-01
DAV:  58    -0.512913681183E+03    0.74845E-05   -0.11971E-04  2400   0.180E-02    0.510E-01
DAV:  59    -0.512913674954E+03    0.62298E-05   -0.38764E-05  2592   0.908E-03    0.508E-01
DAV:  60    -0.512913627324E+03    0.47630E-04   -0.56710E-04  2352   0.387E-02    0.503E-01
DAV:  61    -0.512913632956E+03   -0.56320E-05   -0.33235E-04  2496   0.269E-02    0.506E-01
DAV:  62    -0.512913665165E+03   -0.32210E-04   -0.26367E-04  2256   0.270E-02    0.524E-01
DAV:  63    -0.512914291642E+03   -0.62648E-03   -0.11836E-03  2448   0.629E-02    0.510E-01
DAV:  64    -0.512914276613E+03    0.15028E-04   -0.48803E-05  2448   0.117E-02    0.510E-01
DAV:  65    -0.512914247742E+03    0.28872E-04   -0.20295E-05  2592   0.713E-03    0.518E-01
DAV:  66    -0.512914248320E+03   -0.57890E-06   -0.46308E-06  2208   0.340E-03
   2 F= -.51291425E+03 E0= -.51291377E+03  d E =-.775667E+00  mag=     4.9826
       N       E                     dE             d eps       ncg     rms          rms(c)
DAV:   1    -0.513036548056E+03   -0.12230E+00   -0.34529E+02  1536   0.284E+01    0.143E+01
DAV:   2    -0.514424194438E+03   -0.13876E+01   -0.17208E+01  2256   0.915E+00    0.145E+01
DAV:   3    -0.514524144471E+03   -0.99950E-01   -0.22069E+00  2784   0.317E+00    0.113E+01
DAV:   4    -0.514564255649E+03   -0.40111E-01   -0.18232E+00  2400   0.278E+00    0.601E+00
DAV:   5    -0.514521370383E+03    0.42885E-01   -0.11942E+00  2544   0.276E+00    0.286E+00
DAV:   6    -0.514542446250E+03   -0.21076E-01   -0.33414E-01  2736   0.140E+00    0.171E+00
DAV:   7    -0.514547251620E+03   -0.48054E-02   -0.23687E-01  2352   0.980E-01    0.195E+00
DAV:   8    -0.514574845188E+03   -0.27594E-01   -0.12897E-01  2304   0.662E-01    0.245E+00
DAV:   9    -0.514578996124E+03   -0.41509E-02   -0.58824E-02  2256   0.561E-01    0.314E+00
DAV:  10    -0.514580195199E+03   -0.11991E-02   -0.11263E-02  2352   0.250E-01    0.297E+00
DAV:  11    -0.514599142111E+03   -0.18947E-01   -0.20945E-01  2352   0.896E-01    0.253E+00
DAV:  12    -0.514610245814E+03   -0.11104E-01   -0.29983E-01  2304   0.114E+00    0.173E+00
DAV:  13    -0.514609262080E+03    0.98373E-03   -0.54633E-02  2400   0.463E-01    0.117E+00
DAV:  14    -0.514607979135E+03    0.12829E-02   -0.41622E-02  2352   0.404E-01    0.496E-01
DAV:  15    -0.514610507497E+03   -0.25284E-02   -0.14074E-02  2544   0.230E-01    0.201E-01
DAV:  16    -0.514612934879E+03   -0.24274E-02   -0.30217E-03  2736   0.855E-02    0.175E-01
DAV:  17    -0.514615422464E+03   -0.24876E-02   -0.26526E-03  2496   0.903E-02    0.851E-02
DAV:  18    -0.514617087443E+03   -0.16650E-02   -0.65272E-04  2736   0.480E-02    0.596E-02
DAV:  19    -0.514618098298E+03   -0.10109E-02   -0.32294E-04  2688   0.278E-02    0.659E-02
DAV:  20    -0.514618846565E+03   -0.74827E-03   -0.41085E-04  2352   0.288E-02    0.632E-02
DAV:  21    -0.514619686683E+03   -0.84012E-03   -0.68387E-04  2496   0.372E-02    0.274E-02
DAV:  22    -0.514620378375E+03   -0.69169E-03   -0.26465E-04  2448   0.233E-02    0.258E-02
DAV:  23    -0.514620779838E+03   -0.40146E-03   -0.92006E-05  2496   0.133E-02    0.172E-02
DAV:  24    -0.514621249822E+03   -0.46998E-03   -0.15185E-04  2304   0.866E-03    0.140E-02
DAV:  25    -0.514621728870E+03   -0.47905E-03   -0.23926E-04  2208   0.104E-02    0.134E-02
DAV:  26    -0.514622284618E+03   -0.55575E-03   -0.56315E-04  2064   0.134E-02    0.146E-02
DAV:  27    -0.514622666137E+03   -0.38152E-03   -0.70983E-04  2112   0.147E-02    0.123E-02
DAV:  28    -0.514622761223E+03   -0.95086E-04   -0.24217E-04  2016   0.891E-03    0.108E-02
DAV:  29    -0.514622752510E+03    0.87132E-05   -0.20512E-04  2208   0.814E-03    0.988E-03
DAV:  30    -0.514622707639E+03    0.44871E-04   -0.34767E-04  2064   0.985E-03    0.915E-03
DAV:  31    -0.514622648351E+03    0.59288E-04   -0.11635E-03  2208   0.183E-02    0.925E-03
DAV:  32    -0.514622657463E+03   -0.91120E-05   -0.16515E-03  2208   0.218E-02    0.794E-03
DAV:  33    -0.514622720174E+03   -0.62711E-04   -0.15233E-03  2208   0.208E-02    0.706E-03
DAV:  34    -0.514622794438E+03   -0.74265E-04   -0.15637E-03  2208   0.212E-02    0.657E-03
DAV:  35    -0.514622907147E+03   -0.11271E-03   -0.15972E-03  2208   0.210E-02    0.771E-03
DAV:  36    -0.514623000638E+03   -0.93491E-04   -0.74984E-04  2208   0.145E-02    0.802E-03
DAV:  37    -0.514623055625E+03   -0.54987E-04   -0.25420E-04  2112   0.856E-03    0.753E-03
DAV:  38    -0.514623077103E+03   -0.21479E-04   -0.22853E-04  2208   0.813E-03    0.385E-03
DAV:  39    -0.514623089712E+03   -0.12609E-04   -0.27079E-04  2016   0.867E-03    0.325E-03
DAV:  40    -0.514623098273E+03   -0.85608E-05   -0.96450E-05  1872   0.542E-03    0.397E-03
DAV:  41    -0.514623098502E+03   -0.22876E-06   -0.24271E-05  1824   0.328E-03    0.289E-03
DAV:  42    -0.514623098632E+03   -0.12998E-06   -0.10363E-05  1440   0.233E-03    0.140E-03
DAV:  43    -0.514623099801E+03   -0.11694E-05   -0.50001E-06  1248   0.164E-03    0.117E-03
DAV:  44    -0.514623100669E+03   -0.86773E-06   -0.54117E-06  1248   0.154E-03
   3 F= -.51462310E+03 E0= -.51462227E+03  d E =-.248452E+01  mag=     4.9826
       N       E                     dE             d eps       ncg     rms          rms(c)
DAV:   1    -0.514004469246E+03    0.61863E+00   -0.49475E+02  1632   0.371E+01    0.625E+00
DAV:   2    -0.515813368422E+03   -0.18089E+01   -0.20689E+01  2544   0.968E+00    0.605E+00
DAV:   3    -0.515836187828E+03   -0.22819E-01   -0.15357E+00  2880   0.227E+00    0.413E+00
DAV:   4    -0.515811792971E+03    0.24395E-01   -0.41532E-01  2304   0.120E+00    0.291E+00
DAV:   5    -0.515801182229E+03    0.10611E-01   -0.19020E-01  2784   0.114E+00    0.168E+00
DAV:   6    -0.515797950818E+03    0.32314E-02   -0.10756E-01  2400   0.818E-01    0.834E-01
DAV:   7    -0.515796961379E+03    0.98944E-03   -0.39183E-02  2640   0.485E-01    0.440E-01
DAV:   8    -0.515796148649E+03    0.81273E-03   -0.12033E-02  2400   0.233E-01    0.300E-01
DAV:   9    -0.515796732133E+03   -0.58348E-03   -0.49848E-03  2880   0.115E-01    0.225E-01
DAV:  10    -0.515797016163E+03   -0.28403E-03   -0.14254E-03  2496   0.906E-02    0.131E-01
DAV:  11    -0.515797654085E+03   -0.63792E-03   -0.19701E-03  2496   0.812E-02    0.950E-02
DAV:  12    -0.515797953154E+03   -0.29907E-03   -0.46865E-04  2448   0.474E-02    0.530E-02
DAV:  13    -0.515798181801E+03   -0.22865E-03   -0.18725E-04  2400   0.257E-02    0.314E-02
DAV:  14    -0.515798434303E+03   -0.25250E-03   -0.76506E-05  2592   0.142E-02    0.187E-02
DAV:  15    -0.515798767324E+03   -0.33302E-03   -0.88064E-05  2496   0.109E-02    0.127E-02
DAV:  16    -0.515799017082E+03   -0.24976E-03   -0.51342E-05  2544   0.746E-03    0.932E-03
DAV:  17    -0.515799210758E+03   -0.19368E-03   -0.35352E-05  2208   0.558E-03    0.691E-03
DAV:  18    -0.515799390318E+03   -0.17956E-03   -0.38813E-05  2160   0.509E-03    0.514E-03
DAV:  19    -0.515799528513E+03   -0.13819E-03   -0.32339E-05  2112   0.420E-03    0.395E-03
DAV:  20    -0.515799617253E+03   -0.88741E-04   -0.22393E-05  2064   0.330E-03    0.285E-03
DAV:  21    -0.515799657798E+03   -0.40544E-04   -0.10270E-05  1824   0.228E-03    0.242E-03
DAV:  22    -0.515799675325E+03   -0.17527E-04   -0.46138E-06  1392   0.164E-03    0.214E-03
DAV:  23    -0.515799687398E+03   -0.12072E-04   -0.55483E-06  1440   0.166E-03    0.207E-03
DAV:  24    -0.515799694869E+03   -0.74717E-05   -0.42222E-06  1392   0.154E-03    0.194E-03
DAV:  25    -0.515799701158E+03   -0.62890E-05   -0.80975E-06  1632   0.183E-03    0.192E-03
DAV:  26    -0.515799707415E+03   -0.62570E-05   -0.13712E-05  1536   0.212E-03    0.185E-03
DAV:  27    -0.515799710991E+03   -0.35760E-05   -0.20841E-05  1584   0.250E-03    0.182E-03
DAV:  28    -0.515799709709E+03    0.12825E-05   -0.44927E-05  1680   0.350E-03    0.171E-03
DAV:  29    -0.515799705978E+03    0.37303E-05   -0.85047E-05  1776   0.471E-03    0.162E-03
DAV:  30    -0.515799704668E+03    0.13103E-05   -0.81728E-05  1584   0.459E-03    0.150E-03
DAV:  31    -0.515799704775E+03   -0.10731E-06   -0.76847E-05  1584   0.446E-03    0.144E-03
DAV:  32    -0.515799706125E+03   -0.13493E-05   -0.47832E-05  1440   0.354E-03    0.126E-03
DAV:  33    -0.515799708491E+03   -0.23667E-05   -0.39444E-05  1536   0.330E-03    0.115E-03
DAV:  34    -0.515799712950E+03   -0.44585E-05   -0.38254E-05  1488   0.322E-03    0.104E-03
DAV:  35    -0.515799718216E+03   -0.52660E-05   -0.83475E-05  1824   0.471E-03    0.106E-03
DAV:  36    -0.515799721495E+03   -0.32791E-05   -0.13554E-05  1344   0.207E-03    0.816E-04
DAV:  37    -0.515799724229E+03   -0.27342E-05   -0.14176E-05  1440   0.212E-03    0.701E-04
DAV:  38    -0.515799725327E+03   -0.10981E-05   -0.12894E-05  1344   0.203E-03    0.698E-04
DAV:  39    -0.515799726022E+03   -0.69479E-06   -0.45735E-06  1104   0.135E-03
   4 F= -.51579973E+03 E0= -.51579973E+03  d E =-.117663E+01  mag=     5.0000
       N       E                     dE             d eps       ncg     rms          rms(c)
DAV:   1    -0.515738610291E+03    0.61115E-01   -0.32953E+01  1536   0.929E+00    0.149E+00
DAV:   2    -0.515848802944E+03   -0.11019E+00   -0.12723E+00  2400   0.247E+00    0.147E+00
DAV:   3    -0.515855602276E+03   -0.67993E-02   -0.13596E-01  2880   0.655E-01    0.111E+00
DAV:   4    -0.515854048276E+03    0.15540E-02   -0.26674E-02  2304   0.315E-01    0.766E-01
DAV:   5    -0.515853529481E+03    0.51879E-03   -0.16034E-02  2880   0.333E-01    0.511E-01
DAV:   6    -0.515852841661E+03    0.68782E-03   -0.76112E-03  2400   0.238E-01    0.185E-01
DAV:   7    -0.515852761234E+03    0.80427E-04   -0.24322E-03  2592   0.113E-01    0.993E-02
DAV:   8    -0.515852797669E+03   -0.36435E-04   -0.49943E-04  2304   0.476E-02    0.800E-02
DAV:   9    -0.515852817559E+03   -0.19890E-04   -0.19597E-04  2976   0.293E-02    0.466E-02
DAV:  10    -0.515852845723E+03   -0.28164E-04   -0.10084E-04  2352   0.215E-02    0.211E-02
DAV:  11    -0.515852879141E+03   -0.33418E-04   -0.47256E-05  2688   0.158E-02    0.142E-02
DAV:  12    -0.515852898858E+03   -0.19716E-04   -0.87458E-06  2256   0.637E-03    0.815E-03
DAV:  13    -0.515852916111E+03   -0.17253E-04   -0.62418E-06  2208   0.473E-03    0.567E-03
DAV:  14    -0.515852935340E+03   -0.19229E-04   -0.35907E-06  1632   0.285E-03    0.416E-03
DAV:  15    -0.515852952472E+03   -0.17131E-04   -0.34003E-06  1632   0.245E-03    0.335E-03
DAV:  16    -0.515852966780E+03   -0.14308E-04   -0.28970E-06  1536   0.193E-03    0.235E-03
DAV:  17    -0.515852980033E+03   -0.13253E-04   -0.30236E-06  1488   0.165E-03    0.207E-03
DAV:  18    -0.515852991817E+03   -0.11784E-04   -0.35729E-06  1392   0.163E-03    0.183E-03
DAV:  19    -0.515852999971E+03   -0.81541E-05   -0.27478E-06  1392   0.145E-03    0.170E-03
DAV:  20    -0.515853006385E+03   -0.64142E-05   -0.28969E-06  1488   0.136E-03    0.152E-03
DAV:  21    -0.515853013291E+03   -0.69058E-05   -0.62188E-06  1488   0.163E-03    0.135E-03
DAV:  22    -0.515853015978E+03   -0.26871E-05   -0.22841E-06  1296   0.115E-03    0.134E-03
DAV:  23    -0.515853017894E+03   -0.19159E-05   -0.25698E-06  1344   0.114E-03    0.124E-03
DAV:  24    -0.515853019271E+03   -0.13768E-05   -0.41794E-06  1392   0.132E-03    0.123E-03
DAV:  25    -0.515853020000E+03   -0.72886E-06   -0.33059E-06  1200   0.122E-03
   5 F= -.51585302E+03 E0= -.51585302E+03  d E =-.122992E+01  mag=     5.0000
       N       E                     dE             d eps       ncg     rms          rms(c)
DAV:   1    -0.515394429179E+03    0.45859E+00   -0.35528E+02  1536   0.304E+01    0.460E+00
DAV:   2    -0.516400696368E+03   -0.10063E+01   -0.11283E+01  2304   0.717E+00    0.628E+00
DAV:   3    -0.516471709198E+03   -0.71013E-01   -0.98957E-01  2832   0.178E+00    0.520E+00
DAV:   4    -0.516435814712E+03    0.35894E-01   -0.32158E-01  2352   0.106E+00    0.411E+00
DAV:   5    -0.516420224696E+03    0.15590E-01   -0.24694E-01  2592   0.123E+00    0.195E+00
DAV:   6    -0.516419309430E+03    0.91527E-03   -0.10427E-01  2688   0.976E-01    0.144E+00
DAV:   7    -0.516417643579E+03    0.16659E-02   -0.35640E-02  2688   0.471E-01    0.946E-01
DAV:   8    -0.516415022154E+03    0.26214E-02   -0.10924E-02  2640   0.232E-01    0.681E-01
DAV:   9    -0.516413696338E+03    0.13258E-02   -0.69743E-03  2400   0.163E-01    0.432E-01
DAV:  10    -0.516413386680E+03    0.30966E-03   -0.39038E-03  2592   0.129E-01    0.228E-01
DAV:  11    -0.516413375297E+03    0.11382E-04   -0.12015E-03  2592   0.712E-02    0.130E-01
DAV:  12    -0.516413489231E+03   -0.11393E-03   -0.30787E-04  2976   0.323E-02    0.921E-02
DAV:  13    -0.516413573577E+03   -0.84346E-04   -0.59781E-05  2448   0.154E-02    0.657E-02
DAV:  14    -0.516413661125E+03   -0.87548E-04   -0.83850E-05  2544   0.160E-02    0.306E-02
DAV:  15    -0.516413708066E+03   -0.46940E-04   -0.45202E-05  2592   0.129E-02    0.132E-02
DAV:  16    -0.516413739188E+03   -0.31122E-04   -0.20483E-05  2256   0.637E-03    0.810E-03
DAV:  17    -0.516413764215E+03   -0.25027E-04   -0.13983E-05  1632   0.392E-03    0.581E-03
DAV:  18    -0.516413791079E+03   -0.26864E-04   -0.21370E-05  1872   0.394E-03    0.485E-03
DAV:  19    -0.516413817352E+03   -0.26274E-04   -0.28641E-05  1728   0.400E-03    0.447E-03
DAV:  20    -0.516413839111E+03   -0.21758E-04   -0.31535E-05  1632   0.389E-03    0.456E-03
DAV:  21    -0.516413855965E+03   -0.16855E-04   -0.31133E-05  1680   0.370E-03    0.438E-03
DAV:  22    -0.516413870051E+03   -0.14085E-04   -0.35518E-05  1680   0.382E-03    0.413E-03
DAV:  23    -0.516413886148E+03   -0.16097E-04   -0.10914E-04  1824   0.631E-03    0.383E-03
DAV:  24    -0.516413891368E+03   -0.52206E-05   -0.18916E-04  1920   0.813E-03    0.363E-03
DAV:  25    -0.516413894915E+03   -0.35467E-05   -0.14993E-04  1776   0.715E-03    0.372E-03
DAV:  26    -0.516413898517E+03   -0.36018E-05   -0.21469E-05  1440   0.295E-03    0.359E-03
DAV:  27    -0.516413899938E+03   -0.14213E-05   -0.22164E-06  1200   0.128E-03    0.363E-03
DAV:  28    -0.516413899376E+03    0.56210E-06   -0.82686E-07  1104   0.895E-04
   6 F= -.51641390E+03 E0= -.51641390E+03  d E =-.560879E+00  mag=     5.0000
       N       E                     dE             d eps       ncg     rms          rms(c)
DAV:   1    -0.516409959595E+03    0.39403E-02   -0.30958E+00  1536   0.280E+00    0.453E-01
DAV:   2    -0.516418036948E+03   -0.80774E-02   -0.90861E-02  2304   0.644E-01    0.597E-01
DAV:   3    -0.516418548024E+03   -0.51108E-03   -0.70748E-03  2880   0.157E-01    0.501E-01
DAV:   4    -0.516418332242E+03    0.21578E-03   -0.23534E-03  2448   0.999E-02    0.412E-01
DAV:   5    -0.516418128877E+03    0.20336E-03   -0.24477E-03  2592   0.126E-01    0.191E-01
DAV:   6    -0.516418113660E+03    0.15217E-04   -0.99601E-04  2496   0.910E-02    0.147E-01
DAV:   7    -0.516418115703E+03   -0.20428E-05   -0.31326E-04  2976   0.437E-02    0.101E-01
DAV:   8    -0.516418120085E+03   -0.43823E-05   -0.81453E-05  2448   0.199E-02    0.755E-02
DAV:   9    -0.516418126463E+03   -0.63780E-05   -0.69165E-05  2400   0.157E-02    0.469E-02
DAV:  10    -0.516418136862E+03   -0.10399E-04   -0.50774E-05  2352   0.137E-02    0.241E-02
DAV:  11    -0.516418142863E+03   -0.60014E-05   -0.20994E-05  2592   0.770E-03    0.146E-02
DAV:  12    -0.516418146480E+03   -0.36167E-05   -0.56986E-06  1776   0.344E-03    0.114E-02
DAV:  13    -0.516418150768E+03   -0.42882E-05   -0.83134E-06  1488   0.293E-03    0.832E-03
DAV:  14    -0.516418155646E+03   -0.48775E-05   -0.14743E-05  1488   0.326E-03    0.499E-03
DAV:  15    -0.516418159114E+03   -0.34682E-05   -0.92768E-06  1248   0.270E-03    0.355E-03
DAV:  16    -0.516418161422E+03   -0.23076E-05   -0.52700E-06  1344   0.220E-03    0.322E-03
DAV:  17    -0.516418164118E+03   -0.26960E-05   -0.83843E-06  1200   0.230E-03    0.316E-03
DAV:  18    -0.516418166129E+03   -0.20117E-05   -0.53942E-06  1200   0.189E-03    0.312E-03
DAV:  19    -0.516418166128E+03    0.88039E-09   -0.18446E-07  1152   0.867E-04
   7 F= -.51641817E+03 E0= -.51641817E+03  d E =-.565146E+00  mag=     5.0000
       N       E                     dE             d eps       ncg     rms          rms(c)
DAV:   1    -0.515822785280E+03    0.59538E+00   -0.21576E+02  1536   0.222E+01    0.432E+00
DAV:   2    -0.516517494357E+03   -0.69471E+00   -0.79605E+00  2448   0.592E+00    0.529E+00
DAV:   3    -0.516534379493E+03   -0.16885E-01   -0.64887E-01  2592   0.149E+00    0.398E+00
DAV:   4    -0.516524873745E+03    0.95057E-02   -0.24611E-01  2496   0.840E-01    0.312E+00
DAV:   5    -0.516521354224E+03    0.35195E-02   -0.13611E-01  2640   0.861E-01    0.135E+00
DAV:   6    -0.516517474825E+03    0.38794E-02   -0.86444E-02  2448   0.764E-01    0.802E-01
DAV:   7    -0.516516354975E+03    0.11199E-02   -0.26125E-02  2496   0.402E-01    0.399E-01
DAV:   8    -0.516516421183E+03   -0.66207E-04   -0.43673E-03  2496   0.138E-01    0.287E-01
DAV:   9    -0.516517116812E+03   -0.69563E-03   -0.24888E-03  2352   0.925E-02    0.161E-01
DAV:  10    -0.516517524567E+03   -0.40776E-03   -0.10260E-03  2784   0.734E-02    0.696E-02
DAV:  11    -0.516517791992E+03   -0.26742E-03   -0.32243E-04  2592   0.420E-02    0.401E-02
DAV:  12    -0.516517952468E+03   -0.16048E-03   -0.76665E-05  2688   0.185E-02    0.257E-02
DAV:  13    -0.516518164222E+03   -0.21175E-03   -0.63757E-05  2256   0.107E-02    0.154E-02
DAV:  14    -0.516518344831E+03   -0.18061E-03   -0.58362E-05  2352   0.819E-03    0.105E-02
DAV:  15    -0.516518453059E+03   -0.10823E-03   -0.31460E-05  2016   0.583E-03    0.798E-03
DAV:  16    -0.516518583632E+03   -0.13057E-03   -0.64451E-05  2112   0.643E-03    0.712E-03
DAV:  17    -0.516518687601E+03   -0.10397E-03   -0.66002E-05  1776   0.576E-03    0.671E-03
DAV:  18    -0.516518762939E+03   -0.75337E-04   -0.54960E-05  1776   0.507E-03    0.647E-03
DAV:  19    -0.516518839604E+03   -0.76665E-04   -0.10690E-04  1824   0.652E-03    0.613E-03
DAV:  20    -0.516518908690E+03   -0.69085E-04   -0.19346E-04  1968   0.846E-03    0.591E-03
DAV:  21    -0.516518941200E+03   -0.32510E-04   -0.16298E-04  1968   0.768E-03    0.574E-03
DAV:  22    -0.516518951043E+03   -0.98431E-05   -0.11995E-04  1824   0.659E-03    0.560E-03
DAV:  23    -0.516518953422E+03   -0.23794E-05   -0.24308E-04  1920   0.925E-03    0.554E-03
DAV:  24    -0.516518960877E+03   -0.74545E-05   -0.60485E-04  1968   0.145E-02    0.543E-03
DAV:  25    -0.516518985270E+03   -0.24393E-04   -0.27797E-03  2064   0.310E-02    0.590E-03
DAV:  26    -0.516519035163E+03   -0.49893E-04   -0.33322E-03  2208   0.338E-02    0.610E-03
DAV:  27    -0.516519080149E+03   -0.44986E-04   -0.25615E-03  2064   0.296E-02    0.565E-03
DAV:  28    -0.516519118276E+03   -0.38126E-04   -0.68528E-04  1968   0.157E-02    0.453E-03
DAV:  29    -0.516519142842E+03   -0.24566E-04   -0.52629E-04  1920   0.135E-02    0.411E-03
DAV:  30    -0.516519166499E+03   -0.23657E-04   -0.20237E-03  2160   0.263E-02    0.462E-03
DAV:  31    -0.516519200510E+03   -0.34012E-04   -0.20995E-03  2064   0.267E-02    0.464E-03
DAV:  32    -0.516519235007E+03   -0.34496E-04   -0.10840E-03  1920   0.193E-02    0.381E-03
DAV:  33    -0.516519260124E+03   -0.25118E-04   -0.58243E-04  2016   0.142E-02    0.316E-03
DAV:  34    -0.516519272302E+03   -0.12177E-04   -0.10013E-03  2016   0.184E-02    0.333E-03
DAV:  35    -0.516519289158E+03   -0.16857E-04   -0.27619E-04  1824   0.990E-03    0.250E-03
DAV:  36    -0.516519293260E+03   -0.41018E-05   -0.11965E-03  2016   0.202E-02    0.299E-03
DAV:  37    -0.516519302282E+03   -0.90216E-05   -0.48717E-04  1824   0.130E-02    0.238E-03
DAV:  38    -0.516519307203E+03   -0.49208E-05   -0.43741E-04  1968   0.122E-02    0.208E-03
DAV:  39    -0.516519311745E+03   -0.45424E-05   -0.11288E-04  1632   0.635E-03    0.140E-03
DAV:  40    -0.516519314746E+03   -0.30007E-05   -0.56944E-05  1536   0.454E-03    0.107E-03
DAV:  41    -0.516519316134E+03   -0.13886E-05   -0.83354E-05  1584   0.539E-03    0.103E-03
DAV:  42    -0.516519316331E+03   -0.19650E-06   -0.76846E-05  1584   0.517E-03    0.944E-04
DAV:  43    -0.516519318595E+03   -0.22639E-05   -0.13659E-06  1200   0.112E-03    0.659E-04
DAV:  44    -0.516519319810E+03   -0.12148E-05   -0.10440E-07  1152   0.548E-04    0.565E-04
DAV:  45    -0.516519320092E+03   -0.28247E-06   -0.10719E-06  1152   0.783E-04
   8 F= -.51651932E+03 E0= -.51651932E+03  d E =-.101154E+00  mag=     5.0000
       N       E                     dE             d eps       ncg     rms          rms(c)
DAV:   1    -0.516493781217E+03    0.25539E-01   -0.32523E+01  1536   0.850E+00    0.167E+00
DAV:   2    -0.516589470616E+03   -0.95689E-01   -0.10797E+00  2352   0.219E+00    0.199E+00
DAV:   3    -0.516594422612E+03   -0.49520E-02   -0.93744E-02  2880   0.526E-01    0.162E+00
DAV:   4    -0.516592732389E+03    0.16902E-02   -0.23605E-02  2208   0.341E-01    0.130E+00
DAV:   5    -0.516590676440E+03    0.20559E-02   -0.26350E-02  2448   0.430E-01    0.494E-01
DAV:   6    -0.516590493377E+03    0.18306E-03   -0.12266E-02  2496   0.313E-01    0.376E-01
DAV:   7    -0.516590444232E+03    0.49145E-04   -0.30819E-03  2640   0.142E-01    0.238E-01
DAV:   8    -0.516590508658E+03   -0.64425E-04   -0.76632E-04  2400   0.562E-02    0.172E-01
DAV:   9    -0.516590631409E+03   -0.12275E-03   -0.52391E-04  2352   0.442E-02    0.741E-02
DAV:  10    -0.516590715269E+03   -0.83860E-04   -0.18728E-04  2688   0.296E-02    0.373E-02
DAV:  11    -0.516590787745E+03   -0.72476E-04   -0.39144E-05  2736   0.143E-02    0.234E-02
DAV:  12    -0.516590834734E+03   -0.46989E-04   -0.91213E-06  2688   0.600E-03    0.134E-02
DAV:  13    -0.516590901935E+03   -0.67201E-04   -0.79242E-06  2016   0.408E-03    0.590E-03
DAV:  14    -0.516590952050E+03   -0.50115E-04   -0.51799E-06  1680   0.304E-03    0.354E-03
DAV:  15    -0.516590985207E+03   -0.33157E-04   -0.33698E-06  1680   0.237E-03    0.270E-03
DAV:  16    -0.516591009700E+03   -0.24493E-04   -0.24922E-06  1344   0.180E-03    0.251E-03
DAV:  17    -0.516591033452E+03   -0.23752E-04   -0.33999E-06  1488   0.170E-03    0.215E-03
DAV:  18    -0.516591060000E+03   -0.26547E-04   -0.66362E-06  1440   0.198E-03    0.201E-03
DAV:  19    -0.516591076639E+03   -0.16640E-04   -0.46848E-06  1296   0.170E-03    0.189E-03
DAV:  20    -0.516591094614E+03   -0.17975E-04   -0.99975E-06  1632   0.224E-03    0.182E-03
DAV:  21    -0.516591106225E+03   -0.11611E-04   -0.13756E-05  1584   0.246E-03    0.179E-03
DAV:  22    -0.516591108336E+03   -0.21114E-05   -0.15558E-06  1248   0.105E-03    0.179E-03
DAV:  23    -0.516591107792E+03    0.54393E-06   -0.20118E-07  1152   0.564E-04
   9 F= -.51659111E+03 E0= -.51659111E+03  d E =-.172942E+00  mag=     5.0000
       N       E                     dE             d eps       ncg     rms          rms(c)
DAV:   1    -0.516412636541E+03    0.17847E+00   -0.10783E+02  1536   0.155E+01    0.286E+00
DAV:   2    -0.516706031224E+03   -0.29339E+00   -0.32020E+00  2256   0.372E+00    0.306E+00
DAV:   3    -0.516722671105E+03   -0.16640E-01   -0.29896E-01  2880   0.991E-01    0.228E+00
DAV:   4    -0.516716067341E+03    0.66038E-02   -0.75739E-02  2352   0.591E-01    0.172E+00
DAV:   5    -0.516713199439E+03    0.28679E-02   -0.59805E-02  2592   0.664E-01    0.706E-01
DAV:   6    -0.516712360599E+03    0.83884E-03   -0.25608E-02  2592   0.444E-01    0.415E-01
DAV:   7    -0.516712068992E+03    0.29161E-03   -0.59838E-03  2784   0.208E-01    0.215E-01
DAV:   8    -0.516712181762E+03   -0.11277E-03   -0.12124E-03  2592   0.789E-02    0.158E-01
DAV:   9    -0.516712395544E+03   -0.21378E-03   -0.51739E-04  2448   0.463E-02    0.881E-02
DAV:  10    -0.516712631883E+03   -0.23634E-03   -0.34760E-04  2400   0.392E-02    0.433E-02
DAV:  11    -0.516712796650E+03   -0.16477E-03   -0.10411E-04  2640   0.248E-02    0.243E-02
DAV:  12    -0.516712891579E+03   -0.94928E-04   -0.20350E-05  2592   0.953E-03    0.159E-02
DAV:  13    -0.516713005672E+03   -0.11409E-03   -0.11428E-05  2400   0.621E-03    0.108E-02
DAV:  14    -0.516713131014E+03   -0.12534E-03   -0.74825E-06  2016   0.405E-03    0.613E-03
DAV:  15    -0.516713229941E+03   -0.98928E-04   -0.55681E-06  1632   0.326E-03    0.385E-03
DAV:  16    -0.516713291152E+03   -0.61211E-04   -0.36618E-06  1488   0.238E-03    0.295E-03
DAV:  17    -0.516713328891E+03   -0.37739E-04   -0.18993E-06  1440   0.185E-03    0.239E-03
DAV:  18    -0.516713380841E+03   -0.51950E-04   -0.45638E-06  1392   0.188E-03    0.218E-03
DAV:  19    -0.516713438476E+03   -0.57634E-04   -0.85345E-06  1440   0.223E-03    0.205E-03
DAV:  20    -0.516713480533E+03   -0.42058E-04   -0.86354E-06  1488   0.217E-03    0.188E-03
DAV:  21    -0.516713509021E+03   -0.28487E-04   -0.91447E-06  1344   0.206E-03    0.190E-03
DAV:  22    -0.516713518826E+03   -0.98052E-05   -0.35362E-06  1296   0.147E-03    0.178E-03
DAV:  23    -0.516713524536E+03   -0.57103E-05   -0.43691E-06  1440   0.153E-03    0.178E-03
DAV:  24    -0.516713525252E+03   -0.71552E-06   -0.32734E-07  1152   0.721E-04
  10 F= -.51671353E+03 E0= -.51671353E+03  d E =-.122417E+00  mag=     5.0000
       N       E                     dE             d eps       ncg     rms          rms(c)
DAV:   1    -0.516713003044E+03    0.52149E-03   -0.37243E-01  1632   0.908E-01    0.157E-01
DAV:   2    -0.516713949851E+03   -0.94681E-03   -0.10576E-02  2256   0.218E-01    0.174E-01
DAV:   3    -0.516714016140E+03   -0.66289E-04   -0.97512E-04  2880   0.562E-02    0.135E-01
DAV:   4    -0.516713994102E+03    0.22039E-04   -0.23253E-04  2448   0.341E-02    0.109E-01
DAV:   5    -0.516713975001E+03    0.19100E-04   -0.24364E-04  2496   0.408E-02    0.445E-02
DAV:   6    -0.516713972277E+03    0.27242E-05   -0.10317E-04  2496   0.272E-02    0.273E-02
DAV:   7    -0.516713974915E+03   -0.26382E-05   -0.22476E-05  2688   0.122E-02    0.163E-02
DAV:   8    -0.516713979187E+03   -0.42717E-05   -0.47434E-06  2112   0.476E-03    0.123E-02
DAV:   9    -0.516713986039E+03   -0.68520E-05   -0.52388E-06  2016   0.387E-03    0.642E-03
DAV:  10    -0.516713992375E+03   -0.63363E-05   -0.39213E-06  1776   0.340E-03    0.318E-03
DAV:  11    -0.516713995959E+03   -0.35834E-05   -0.15201E-06  1248   0.234E-03    0.247E-03
DAV:  12    -0.516713998250E+03   -0.22911E-05   -0.89627E-07  1200   0.145E-03    0.196E-03
DAV:  13    -0.516714000273E+03   -0.20234E-05   -0.75601E-07  1104   0.124E-03    0.175E-03
DAV:  14    -0.516714002513E+03   -0.22399E-05   -0.11814E-06  1200   0.115E-03    0.159E-03
DAV:  15    -0.516714004775E+03   -0.22621E-05   -0.15148E-06  1200   0.114E-03    0.147E-03
DAV:  16    -0.516714007855E+03   -0.30796E-05   -0.38753E-06  1200   0.144E-03    0.145E-03
DAV:  17    -0.516714010504E+03   -0.26493E-05   -0.46850E-06  1344   0.152E-03    0.152E-03
DAV:  18    -0.516714009451E+03    0.10525E-05   -0.98416E-07  1104   0.958E-04    0.175E-03
DAV:  19    -0.516714011278E+03   -0.18271E-05   -0.37330E-06  1200   0.134E-03    0.168E-03
DAV:  20    -0.516714014588E+03   -0.33098E-05   -0.35717E-05  1488   0.353E-03    0.208E-03
DAV:  21    -0.516714015215E+03   -0.62667E-06   -0.39627E-05  1536   0.373E-03    0.235E-03
DAV:  22    -0.516714013492E+03    0.17228E-05   -0.63874E-05  1440   0.462E-03    0.274E-03
DAV:  23    -0.516714013811E+03   -0.31849E-06   -0.79871E-06  1056   0.193E-03
  11 F= -.51671401E+03 E0= -.51671401E+03  d E =-.122906E+00  mag=     5.0000
       N       E                     dE             d eps       ncg     rms          rms(c)
DAV:   1    -0.516625396591E+03    0.88617E-01   -0.90872E+01  1536   0.144E+01    0.178E+00
DAV:   2    -0.516838074722E+03   -0.21268E+00   -0.22901E+00  2208   0.313E+00    0.198E+00
DAV:   3    -0.516846276974E+03   -0.82023E-02   -0.16099E-01  2928   0.748E-01    0.144E+00
DAV:   4    -0.516840087734E+03    0.61892E-02   -0.28714E-02  2448   0.362E-01    0.117E+00
DAV:   5    -0.516836067876E+03    0.40199E-02   -0.30356E-02  2544   0.479E-01    0.517E-01
DAV:   6    -0.516835846187E+03    0.22169E-03   -0.11847E-02  2496   0.290E-01    0.254E-01
DAV:   7    -0.516835899947E+03   -0.53761E-04   -0.32367E-03  2688   0.140E-01    0.167E-01
DAV:   8    -0.516835839656E+03    0.60291E-04   -0.70027E-04  2544   0.656E-02    0.109E-01
DAV:   9    -0.516835858308E+03   -0.18652E-04   -0.32880E-04  2544   0.388E-02    0.682E-02
DAV:  10    -0.516835899155E+03   -0.40848E-04   -0.18869E-04  2544   0.318E-02    0.296E-02
DAV:  11    -0.516835940556E+03   -0.41401E-04   -0.56089E-05  2496   0.188E-02    0.178E-02
DAV:  12    -0.516835968486E+03   -0.27930E-04   -0.13846E-05  2688   0.796E-03    0.101E-02
DAV:  13    -0.516835999012E+03   -0.30527E-04   -0.28155E-06  1728   0.424E-03    0.714E-03
DAV:  14    -0.516836037967E+03   -0.38955E-04   -0.23550E-06  1728   0.302E-03    0.443E-03
DAV:  15    -0.516836082411E+03   -0.44444E-04   -0.21387E-06  1344   0.235E-03    0.243E-03
DAV:  16    -0.516836106477E+03   -0.24066E-04   -0.93559E-07  1296   0.179E-03    0.204E-03
DAV:  17    -0.516836118623E+03   -0.12146E-04   -0.43589E-07  1152   0.132E-03    0.160E-03
DAV:  18    -0.516836137420E+03   -0.18797E-04   -0.85815E-07  1296   0.123E-03    0.133E-03
DAV:  19    -0.516836158135E+03   -0.20715E-04   -0.12322E-06  1344   0.129E-03    0.112E-03
DAV:  20    -0.516836173990E+03   -0.15855E-04   -0.11310E-06  1248   0.117E-03    0.105E-03
DAV:  21    -0.516836187008E+03   -0.13018E-04   -0.13455E-06  1344   0.118E-03    0.105E-03
DAV:  22    -0.516836193114E+03   -0.61055E-05   -0.52449E-07  1200   0.888E-04    0.927E-04
DAV:  23    -0.516836196740E+03   -0.36261E-05   -0.39119E-07  1104   0.772E-04    0.928E-04
DAV:  24    -0.516836200715E+03   -0.39754E-05   -0.99132E-07  1152   0.915E-04    0.832E-04
DAV:  25    -0.516836203706E+03   -0.29905E-05   -0.20324E-06  1296   0.110E-03    0.840E-04
DAV:  26    -0.516836204848E+03   -0.11423E-05   -0.17327E-06  1200   0.106E-03    0.858E-04
DAV:  27    -0.516836204945E+03   -0.96865E-07   -0.57668E-07  1152   0.763E-04
  12 F= -.51683620E+03 E0= -.51683620E+03  d E =-.122191E+00  mag=     5.0000
       N       E                     dE             d eps       ncg     rms          rms(c)
DAV:   1    -0.516736263058E+03    0.99942E-01   -0.56569E+01  1536   0.114E+01    0.139E+00
DAV:   2    -0.516864903128E+03   -0.12864E+00   -0.13865E+00  2064   0.245E+00    0.157E+00
DAV:   3    -0.516872196863E+03   -0.72937E-02   -0.11522E-01  3024   0.614E-01    0.117E+00
DAV:   4    -0.516868311379E+03    0.38855E-02   -0.18834E-02  2448   0.294E-01    0.949E-01
DAV:   5    -0.516865995043E+03    0.23163E-02   -0.21457E-02  2544   0.411E-01    0.448E-01
DAV:   6    -0.516865650726E+03    0.34432E-03   -0.85949E-03  2496   0.254E-01    0.226E-01
DAV:   7    -0.516865660717E+03   -0.99917E-05   -0.24068E-03  2640   0.119E-01    0.153E-01
DAV:   8    -0.516865578534E+03    0.82183E-04   -0.56636E-04  2688   0.587E-02    0.101E-01
DAV:   9    -0.516865563730E+03    0.14804E-04   -0.27285E-04  2448   0.363E-02    0.620E-02
DAV:  10    -0.516865589926E+03   -0.26195E-04   -0.16642E-04  2592   0.297E-02    0.274E-02
DAV:  11    -0.516865623564E+03   -0.33638E-04   -0.44337E-05  2496   0.173E-02    0.178E-02
DAV:  12    -0.516865644815E+03   -0.21252E-04   -0.10650E-05  2592   0.729E-03    0.110E-02
DAV:  13    -0.516865670065E+03   -0.25250E-04   -0.30613E-06  1584   0.403E-03    0.807E-03
DAV:  14    -0.516865700881E+03   -0.30816E-04   -0.39449E-06  1728   0.304E-03    0.497E-03
DAV:  15    -0.516865738565E+03   -0.37685E-04   -0.58674E-06  1632   0.265E-03    0.301E-03
DAV:  16    -0.516865756944E+03   -0.18378E-04   -0.21928E-06  1344   0.192E-03    0.260E-03
DAV:  17    -0.516865765970E+03   -0.90264E-05   -0.91426E-07  1152   0.131E-03    0.224E-03
DAV:  18    -0.516865779553E+03   -0.13583E-04   -0.20456E-06  1152   0.137E-03    0.193E-03
DAV:  19    -0.516865796746E+03   -0.17193E-04   -0.48974E-06  1440   0.168E-03    0.185E-03
DAV:  20    -0.516865808964E+03   -0.12218E-04   -0.36795E-06  1200   0.154E-03    0.183E-03
DAV:  21    -0.516865814458E+03   -0.54935E-05   -0.11620E-06  1104   0.106E-03    0.180E-03
DAV:  22    -0.516865823053E+03   -0.85950E-05   -0.41675E-06  1248   0.146E-03    0.176E-03
DAV:  23    -0.516865830017E+03   -0.69638E-05   -0.72675E-06  1440   0.179E-03    0.178E-03
DAV:  24    -0.516865832304E+03   -0.22868E-05   -0.17454E-06  1104   0.106E-03    0.169E-03
DAV:  25    -0.516865836071E+03   -0.37674E-05   -0.13759E-05  1488   0.228E-03    0.176E-03
DAV:  26    -0.516865832087E+03    0.39837E-05   -0.43947E-05  1728   0.393E-03    0.171E-03
DAV:  27    -0.516865828151E+03    0.39362E-05   -0.33130E-05  1584   0.339E-03    0.173E-03
DAV:  28    -0.516865825960E+03    0.21915E-05   -0.35902E-05  1584   0.351E-03    0.168E-03
DAV:  29    -0.516865823950E+03    0.20095E-05   -0.89401E-05  1584   0.537E-03    0.177E-03
DAV:  30    -0.516865824811E+03   -0.86052E-06   -0.18466E-04  1680   0.771E-03    0.195E-03
DAV:  31    -0.516865828081E+03   -0.32706E-05   -0.31656E-04  1728   0.997E-03    0.219E-03
DAV:  32    -0.516865832221E+03   -0.41401E-05   -0.25957E-04  1728   0.902E-03    0.215E-03
DAV:  33    -0.516865837907E+03   -0.56860E-05   -0.15156E-04  1680   0.697E-03    0.197E-03
DAV:  34    -0.516865844867E+03   -0.69597E-05   -0.13448E-05  1248   0.248E-03    0.151E-03
DAV:  35    -0.516865848433E+03   -0.35659E-05   -0.24645E-04  1680   0.892E-03    0.182E-03
DAV:  36    -0.516865851841E+03   -0.34077E-05   -0.70829E-04  2064   0.150E-02    0.237E-03
DAV:  37    -0.516865860938E+03   -0.90971E-05   -0.42528E-05  1584   0.407E-03    0.142E-03
DAV:  38    -0.516865864756E+03   -0.38180E-05   -0.10454E-04  1680   0.577E-03    0.139E-03
DAV:  39    -0.516865866499E+03   -0.17430E-05   -0.14386E-04  1632   0.671E-03    0.146E-03
DAV:  40    -0.516865868625E+03   -0.21263E-05   -0.50011E-05  1392   0.402E-03    0.117E-03
DAV:  41    -0.516865870165E+03   -0.15395E-05   -0.60232E-05  1584   0.447E-03    0.114E-03
DAV:  42    -0.516865871589E+03   -0.14241E-05   -0.53323E-05  1440   0.416E-03    0.107E-03
DAV:  43    -0.516865872478E+03   -0.88941E-06   -0.38410E-05  1584   0.361E-03    0.928E-04
DAV:  44    -0.516865873543E+03   -0.10652E-05   -0.10921E-05  1152   0.200E-03    0.759E-04
DAV:  45    -0.516865874112E+03   -0.56862E-06   -0.66193E-06  1104   0.166E-03
  13 F= -.51686587E+03 E0= -.51686587E+03  d E =-.151860E+00  mag=     5.0000
       N       E                     dE             d eps       ncg     rms          rms(c)
DAV:   1    -0.516814409577E+03    0.51464E-01   -0.56115E+01  1536   0.112E+01    0.158E+00
DAV:   2    -0.516942905350E+03   -0.12850E+00   -0.13939E+00  1968   0.245E+00    0.160E+00
DAV:   3    -0.516953294223E+03   -0.10389E-01   -0.14453E-01  3024   0.676E-01    0.119E+00
DAV:   4    -0.516949613003E+03    0.36812E-02   -0.22252E-02  2400   0.327E-01    0.928E-01
DAV:   5    -0.516948520346E+03    0.10927E-02   -0.24214E-02  2544   0.437E-01    0.459E-01
DAV:   6    -0.516947738604E+03    0.78174E-03   -0.99019E-03  2592   0.297E-01    0.253E-01
DAV:   7    -0.516947699856E+03    0.38747E-04   -0.23000E-03  2544   0.119E-01    0.151E-01
DAV:   8    -0.516947691785E+03    0.80712E-05   -0.66827E-04  2640   0.579E-02    0.993E-02
DAV:   9    -0.516947747674E+03   -0.55888E-04   -0.26472E-04  2736   0.395E-02    0.693E-02
DAV:  10    -0.516947811363E+03   -0.63690E-04   -0.13515E-04  2592   0.288E-02    0.374E-02
DAV:  11    -0.516947871767E+03   -0.60404E-04   -0.43261E-05  2592   0.171E-02    0.165E-02
DAV:  12    -0.516947910791E+03   -0.39024E-04   -0.10001E-05  2544   0.672E-03    0.100E-02
DAV:  13    -0.516947941189E+03   -0.30399E-04   -0.18371E-06  1584   0.341E-03    0.725E-03
DAV:  14    -0.516947978068E+03   -0.36878E-04   -0.21954E-06  1680   0.281E-03    0.449E-03
DAV:  15    -0.516948019399E+03   -0.41332E-04   -0.23124E-06  1488   0.226E-03    0.257E-03
DAV:  16    -0.516948035156E+03   -0.15757E-04   -0.64758E-07  1200   0.156E-03    0.197E-03
DAV:  17    -0.516948051712E+03   -0.16556E-04   -0.80670E-07  1344   0.141E-03    0.189E-03
DAV:  18    -0.516948066644E+03   -0.14933E-04   -0.92160E-07  1248   0.130E-03    0.148E-03
DAV:  19    -0.516948085910E+03   -0.19265E-04   -0.18722E-06  1344   0.146E-03    0.132E-03
DAV:  20    -0.516948095305E+03   -0.93951E-05   -0.90651E-07  1248   0.120E-03    0.128E-03
DAV:  21    -0.516948103898E+03   -0.85928E-05   -0.95307E-07  1248   0.110E-03    0.111E-03
DAV:  22    -0.516948113334E+03   -0.94365E-05   -0.22771E-06  1296   0.133E-03    0.115E-03
DAV:  23    -0.516948117708E+03   -0.43737E-05   -0.12030E-06  1152   0.110E-03    0.104E-03
DAV:  24    -0.516948121513E+03   -0.38053E-05   -0.18349E-06  1152   0.116E-03    0.106E-03
DAV:  25    -0.516948123288E+03   -0.17753E-05   -0.15584E-06  1056   0.110E-03    0.102E-03
DAV:  26    -0.516948123931E+03   -0.64216E-06   -0.73501E-07   960   0.865E-04
  14 F= -.51694812E+03 E0= -.51694812E+03  d E =-.822498E-01  mag=     5.0000
       N       E                     dE             d eps       ncg     rms          rms(c)
DAV:   1    -0.516887199229E+03    0.60924E-01   -0.33813E+01  1536   0.865E+00    0.119E+00
DAV:   2    -0.516964998988E+03   -0.77800E-01   -0.84186E-01  2112   0.188E+00    0.118E+00
DAV:   3    -0.516969583003E+03   -0.45840E-02   -0.73033E-02  2928   0.483E-01    0.858E-01
DAV:   4    -0.516967677564E+03    0.19054E-02   -0.11560E-02  2544   0.243E-01    0.683E-01
DAV:   5    -0.516966816473E+03    0.86109E-03   -0.13165E-02  2496   0.322E-01    0.341E-01
DAV:   6    -0.516966418934E+03    0.39754E-03   -0.50050E-03  2496   0.210E-01    0.166E-01
DAV:   7    -0.516966457057E+03   -0.38124E-04   -0.10638E-03  2640   0.796E-02    0.101E-01
DAV:   8    -0.516966483996E+03   -0.26939E-04   -0.28919E-04  2592   0.379E-02    0.649E-02
DAV:   9    -0.516966540853E+03   -0.56857E-04   -0.13537E-04  2592   0.292E-02    0.429E-02
DAV:  10    -0.516966592669E+03   -0.51815E-04   -0.66825E-05  2544   0.201E-02    0.223E-02
DAV:  11    -0.516966635877E+03   -0.43209E-04   -0.20694E-05  2688   0.108E-02    0.110E-02
DAV:  12    -0.516966662922E+03   -0.27045E-04   -0.41344E-06  2112   0.434E-03    0.663E-03
DAV:  13    -0.516966687744E+03   -0.24822E-04   -0.18260E-06  1584   0.277E-03    0.487E-03
DAV:  14    -0.516966713669E+03   -0.25924E-04   -0.23036E-06  1584   0.230E-03    0.303E-03
DAV:  15    -0.516966740069E+03   -0.26400E-04   -0.27840E-06  1344   0.199E-03    0.203E-03
DAV:  16    -0.516966749869E+03   -0.98002E-05   -0.74220E-07  1152   0.140E-03    0.178E-03
DAV:  17    -0.516966761980E+03   -0.12111E-04   -0.12784E-06  1200   0.132E-03    0.162E-03
DAV:  18    -0.516966776416E+03   -0.14435E-04   -0.27397E-06  1296   0.150E-03    0.163E-03
DAV:  19    -0.516966788995E+03   -0.12579E-04   -0.30621E-06  1248   0.149E-03    0.142E-03
DAV:  20    -0.516966796019E+03   -0.70238E-05   -0.18201E-06  1152   0.127E-03    0.149E-03
DAV:  21    -0.516966802770E+03   -0.67512E-05   -0.28027E-06  1296   0.135E-03    0.136E-03
DAV:  22    -0.516966807844E+03   -0.50742E-05   -0.33694E-06  1248   0.142E-03    0.139E-03
DAV:  23    -0.516966811399E+03   -0.35552E-05   -0.43634E-06  1440   0.148E-03    0.137E-03
DAV:  24    -0.516966812678E+03   -0.12790E-05   -0.15811E-06  1152   0.107E-03    0.140E-03
DAV:  25    -0.516966813545E+03   -0.86663E-06   -0.20293E-06  1248   0.105E-03
  15 F= -.51696681E+03 E0= -.51696681E+03  d E =-.100939E+00  mag=     5.0000
       N       E                     dE             d eps       ncg     rms          rms(c)
DAV:   1    -0.516905075790E+03    0.61737E-01   -0.52715E+01  1536   0.106E+01    0.166E+00
DAV:   2    -0.517032304890E+03   -0.12723E+00   -0.14032E+00  2112   0.245E+00    0.149E+00
DAV:   3    -0.517042188026E+03   -0.98831E-02   -0.15751E-01  2880   0.741E-01    0.981E-01
DAV:   4    -0.517039807182E+03    0.23808E-02   -0.28059E-02  2400   0.385E-01    0.817E-01
DAV:   5    -0.517038472092E+03    0.13351E-02   -0.20242E-02  2688   0.397E-01    0.381E-01
DAV:   6    -0.517037971064E+03    0.50103E-03   -0.71054E-03  2496   0.245E-01    0.200E-01
DAV:   7    -0.517038055278E+03   -0.84214E-04   -0.18423E-03  2832   0.104E-01    0.104E-01
DAV:   8    -0.517038137940E+03   -0.82662E-04   -0.42894E-04  2496   0.475E-02    0.680E-02
DAV:   9    -0.517038244283E+03   -0.10634E-03   -0.15355E-04  2592   0.278E-02    0.433E-02
DAV:  10    -0.517038347300E+03   -0.10302E-03   -0.70977E-05  2544   0.193E-02    0.235E-02
DAV:  11    -0.517038448170E+03   -0.10087E-03   -0.25099E-05  2640   0.116E-02    0.121E-02
DAV:  12    -0.517038504292E+03   -0.56122E-04   -0.69875E-06  2400   0.593E-03    0.660E-03
DAV:  13    -0.517038549777E+03   -0.45485E-04   -0.24271E-06  1584   0.325E-03    0.470E-03
DAV:  14    -0.517038601745E+03   -0.51968E-04   -0.31456E-06  1536   0.261E-03    0.328E-03
DAV:  15    -0.517038647192E+03   -0.45447E-04   -0.23823E-06  1344   0.222E-03    0.252E-03
DAV:  16    -0.517038678805E+03   -0.31613E-04   -0.18404E-06  1344   0.174E-03    0.221E-03
DAV:  17    -0.517038705573E+03   -0.26768E-04   -0.18093E-06  1248   0.165E-03    0.172E-03
DAV:  18    -0.517038732590E+03   -0.27017E-04   -0.26606E-06  1392   0.161E-03    0.175E-03
DAV:  19    -0.517038755117E+03   -0.22527E-04   -0.29568E-06  1440   0.157E-03    0.154E-03
DAV:  20    -0.517038777211E+03   -0.22093E-04   -0.47467E-06  1392   0.166E-03    0.149E-03
DAV:  21    -0.517038787863E+03   -0.10652E-04   -0.25780E-06  1296   0.128E-03    0.144E-03
DAV:  22    -0.517038794748E+03   -0.68847E-05   -0.25452E-06  1200   0.124E-03    0.136E-03
DAV:  23    -0.517038800557E+03   -0.58091E-05   -0.69595E-06  1440   0.173E-03    0.139E-03
DAV:  24    -0.517038802356E+03   -0.17995E-05   -0.61067E-06  1248   0.169E-03    0.133E-03
DAV:  25    -0.517038802143E+03    0.21324E-06   -0.19974E-06  1296   0.115E-03
  16 F= -.51703880E+03 E0= -.51703880E+03  d E =-.719886E-01  mag=     5.0000
       N       E                     dE             d eps       ncg     rms          rms(c)
DAV:   1    -0.516971035046E+03    0.67767E-01   -0.33880E+01  1536   0.844E+00    0.132E+00
DAV:   2    -0.517051349372E+03   -0.80314E-01   -0.88590E-01  2064   0.194E+00    0.116E+00
DAV:   3    -0.517058179256E+03   -0.68299E-02   -0.10358E-01  2928   0.598E-01    0.769E-01
DAV:   4    -0.517056600500E+03    0.15788E-02   -0.16932E-02  2400   0.299E-01    0.631E-01
DAV:   5    -0.517055776644E+03    0.82386E-03   -0.12278E-02  2688   0.307E-01    0.303E-01
DAV:   6    -0.517055483159E+03    0.29348E-03   -0.46373E-03  2544   0.197E-01    0.159E-01
DAV:   7    -0.517055536543E+03   -0.53383E-04   -0.11870E-03  2880   0.835E-02    0.802E-02
DAV:   8    -0.517055594632E+03   -0.58090E-04   -0.26722E-04  2400   0.372E-02    0.525E-02
DAV:   9    -0.517055667010E+03   -0.72378E-04   -0.10375E-04  2496   0.224E-02    0.347E-02
DAV:  10    -0.517055735193E+03   -0.68182E-04   -0.46446E-05  2640   0.154E-02    0.187E-02
DAV:  11    -0.517055808569E+03   -0.73376E-04   -0.17085E-05  2448   0.922E-03    0.939E-03
DAV:  12    -0.517055850022E+03   -0.41453E-04   -0.50224E-06  2112   0.489E-03    0.550E-03
DAV:  13    -0.517055882401E+03   -0.32379E-04   -0.20146E-06  1440   0.288E-03    0.371E-03
DAV:  14    -0.517055922608E+03   -0.40207E-04   -0.29726E-06  1584   0.239E-03    0.277E-03
DAV:  15    -0.517055953298E+03   -0.30690E-04   -0.21428E-06  1296   0.203E-03    0.219E-03
DAV:  16    -0.517055976937E+03   -0.23639E-04   -0.18552E-06  1392   0.170E-03    0.201E-03
DAV:  17    -0.517055996870E+03   -0.19933E-04   -0.19601E-06  1200   0.158E-03    0.166E-03
DAV:  18    -0.517056018270E+03   -0.21400E-04   -0.33064E-06  1344   0.166E-03    0.167E-03
DAV:  19    -0.517056032727E+03   -0.14457E-04   -0.24162E-06  1296   0.148E-03    0.157E-03
DAV:  20    -0.517056045663E+03   -0.12935E-04   -0.31610E-06  1392   0.149E-03    0.151E-03
DAV:  21    -0.517056055264E+03   -0.96008E-05   -0.36822E-06  1296   0.150E-03    0.148E-03
DAV:  22    -0.517056061201E+03   -0.59379E-05   -0.33871E-06  1200   0.138E-03    0.147E-03
DAV:  23    -0.517056065925E+03   -0.47234E-05   -0.56959E-06  1440   0.163E-03    0.138E-03
DAV:  24    -0.517056067579E+03   -0.16537E-05   -0.14209E-05  1584   0.231E-03    0.148E-03
DAV:  25    -0.517056067245E+03    0.33320E-06   -0.12706E-06  1152   0.993E-04
  17 F= -.51705607E+03 E0= -.51705607E+03  d E =-.892537E-01  mag=     5.0000
       N       E                     dE             d eps       ncg     rms          rms(c)
DAV:   1    -0.517056914246E+03   -0.84667E-03   -0.13206E+01  1536   0.512E+00    0.862E-01
DAV:   2    -0.517086183117E+03   -0.29269E-01   -0.31258E-01  2064   0.112E+00    0.795E-01
DAV:   3    -0.517087294008E+03   -0.11109E-02   -0.24347E-02  2784   0.328E-01    0.496E-01
DAV:   4    -0.517086713671E+03    0.58034E-03   -0.79118E-03  2592   0.207E-01    0.410E-01
DAV:   5    -0.517086279050E+03    0.43462E-03   -0.51779E-03  2544   0.204E-01    0.166E-01
DAV:   6    -0.517086249035E+03    0.30015E-04   -0.17530E-03  2544   0.116E-01    0.904E-02
DAV:   7    -0.517086263439E+03   -0.14404E-04   -0.41672E-04  2592   0.523E-02    0.495E-02
DAV:   8    -0.517086292138E+03   -0.28699E-04   -0.98815E-05  2640   0.260E-02    0.335E-02
DAV:   9    -0.517086325247E+03   -0.33109E-04   -0.38194E-05  2544   0.134E-02    0.184E-02
DAV:  10    -0.517086365048E+03   -0.39801E-04   -0.19325E-05  2400   0.980E-03    0.932E-03
DAV:  11    -0.517086393648E+03   -0.28600E-04   -0.77900E-06  2448   0.623E-03    0.557E-03
DAV:  12    -0.517086413186E+03   -0.19538E-04   -0.21846E-06  1584   0.337E-03    0.415E-03
DAV:  13    -0.517086425289E+03   -0.12103E-04   -0.11789E-06  1248   0.208E-03    0.299E-03
DAV:  14    -0.517086439544E+03   -0.14255E-04   -0.13907E-06  1248   0.166E-03    0.208E-03
DAV:  15    -0.517086456102E+03   -0.16558E-04   -0.20126E-06  1344   0.166E-03    0.175E-03
DAV:  16    -0.517086470002E+03   -0.13900E-04   -0.20187E-06  1200   0.147E-03    0.163E-03
DAV:  17    -0.517086480117E+03   -0.10115E-04   -0.16454E-06  1200   0.129E-03    0.155E-03
DAV:  18    -0.517086487371E+03   -0.72545E-05   -0.12730E-06  1152   0.111E-03    0.141E-03
DAV:  19    -0.517086498794E+03   -0.11422E-04   -0.48242E-06  1344   0.158E-03    0.149E-03
DAV:  20    -0.517086506416E+03   -0.76224E-05   -0.42698E-06  1152   0.151E-03    0.140E-03
DAV:  21    -0.517086511579E+03   -0.51629E-05   -0.37902E-06  1296   0.141E-03    0.140E-03
DAV:  22    -0.517086514436E+03   -0.28567E-05   -0.35747E-06  1056   0.134E-03    0.138E-03
DAV:  23    -0.517086515902E+03   -0.14667E-05   -0.36679E-06  1104   0.133E-03    0.136E-03
DAV:  24    -0.517086516656E+03   -0.75342E-06   -0.23441E-06  1104   0.113E-03
  18 F= -.51708652E+03 E0= -.51708652E+03  d E =-.304494E-01  mag=     5.0000
       N       E                     dE             d eps       ncg     rms          rms(c)
DAV:   1    -0.517062633561E+03    0.23882E-01   -0.15821E+01  1536   0.561E+00    0.929E-01
DAV:   2    -0.517097709010E+03   -0.35075E-01   -0.37434E-01  2064   0.122E+00    0.854E-01
DAV:   3    -0.517099044381E+03   -0.13354E-02   -0.29130E-02  2784   0.359E-01    0.531E-01
DAV:   4    -0.517098343280E+03    0.70110E-03   -0.92180E-03  2544   0.223E-01    0.440E-01
DAV:   5    -0.517097833966E+03    0.50931E-03   -0.59774E-03  2544   0.218E-01    0.179E-01
DAV:   6    -0.517097805083E+03    0.28882E-04   -0.20941E-03  2544   0.126E-01    0.996E-02
DAV:   7    -0.517097821912E+03   -0.16829E-04   -0.50498E-04  2592   0.574E-02    0.533E-02
DAV:   8    -0.517097857073E+03   -0.35161E-04   -0.11878E-04  2640   0.284E-02    0.364E-02
DAV:   9    -0.517097894841E+03   -0.37768E-04   -0.44175E-05  2496   0.146E-02    0.202E-02
DAV:  10    -0.517097941197E+03   -0.46356E-04   -0.22973E-05  2448   0.107E-02    0.102E-02
DAV:  11    -0.517097974002E+03   -0.32804E-04   -0.88113E-06  2448   0.663E-03    0.603E-03
DAV:  12    -0.517097996693E+03   -0.22692E-04   -0.24393E-06  1584   0.361E-03    0.447E-03
DAV:  13    -0.517098010820E+03   -0.14127E-04   -0.13202E-06  1296   0.226E-03    0.328E-03
DAV:  14    -0.517098027075E+03   -0.16255E-04   -0.14550E-06  1248   0.176E-03    0.221E-03
DAV:  15    -0.517098046117E+03   -0.19042E-04   -0.20785E-06  1392   0.175E-03    0.181E-03
DAV:  16    -0.517098061969E+03   -0.15852E-04   -0.20488E-06  1296   0.153E-03    0.167E-03
DAV:  17    -0.517098073451E+03   -0.11482E-04   -0.16190E-06  1152   0.136E-03    0.155E-03
DAV:  18    -0.517098082406E+03   -0.89552E-05   -0.14696E-06  1248   0.119E-03    0.146E-03
DAV:  19    -0.517098094150E+03   -0.11743E-04   -0.38992E-06  1296   0.154E-03    0.143E-03
DAV:  20    -0.517098105047E+03   -0.10898E-04   -0.67495E-06  1392   0.180E-03    0.137E-03
DAV:  21    -0.517098111641E+03   -0.65934E-05   -0.65776E-06  1392   0.179E-03    0.146E-03
DAV:  22    -0.517098112943E+03   -0.13028E-05   -0.63456E-07  1152   0.918E-04    0.140E-03
