 vasp.6.4.3 19Mar24 (build Mar 01 2025 18:03:59) gamma-only                     
  
 executed on              Shaheen date 2025.04.24  18:36:32
 running  192 mpi-ranks, on    1 nodes
 distrk:  each k-point on  192 cores,    1 groups
 distr:  one band on NCORE=   4 cores,   48 groups


--------------------------------------------------------------------------------------------------------


 INCAR:
   ISTART = 1            (Read existing wavefunction, if there)
   LREAL = .FALSE.       (Projection operators: automatic)
   ENCUT = 520        (Cut-off energy for plane wave basis set, in eV)
   PREC = Accurate   (Precision level: Normal or Accurate, set Accurate when perform structure lattice relaxation calculation)
   LWAVE = .FALSE.        (Write WAVECAR or not)
   LCHARG = .FALSE.        (Write CHGCAR or not)
   ADDGRID = .TRUE.        (Increase grid, helps GGA convergence)
   LASPH = .TRUE.        (Give more accurate total energies and band structure calculations)
   PREC = Accurate      (Accurate strictly avoids any aliasing or wrap around errors)
   ISMEAR = 0            (Gaussian smearing, metals:1)
   SIGMA = 0.05         (Smearing value in eV, metals:0.2)
   NELM = 90           (Max electronic SCF steps)
   NELMIN = 6            (Min electronic SCF steps)
   EDIFF = 1E-06        (SCF energy convergence, in eV)
   NSW = 300          (Max ionic steps)
   IBRION = 2            (Algorithm: 0-MD, 1-Quasi-New, 2-CG)
   ISIF = 2            (Stress/relaxation: 2-Ions, 3-Shape/Ions/V, 4-Shape/Ions)
   EDIFFG = -2E-02        (Ionic convergence, eV/AA)
   NCORE = 4
   ISPIN = 2
   MAGMOM = 18*1.0 45*0.6 7*0.6
   LDAU = .TRUE.        (Activate DFT+U)
   LDAUTYPE = 2            (Dudarev, only U-J matters)
   LDAUL = 3 -1 2        (Orbitals for each species)
   LDAUU = 5.0  0 2.0         (U for each species)
   LDAUJ = 0  0  0       (J for each species)
   LMAXMIX = 6            (Mixing cut-off, 4-d, 6-f)

 POTCAR:    PAW_PBE Ce 23Dec2003                  
 POTCAR:    PAW_PBE O 08Apr2002                   
 POTCAR:    PAW_PBE Ir 06Sep2000                  
 -----------------------------------------------------------------------------
|                                                                             |
|           W    W    AA    RRRRR   N    N  II  N    N   GGGG   !!!           |
|           W    W   A  A   R    R  NN   N  II  NN   N  G    G  !!!           |
|           W    W  A    A  R    R  N N  N  II  N N  N  G       !!!           |
|           W WW W  AAAAAA  RRRRR   N  N N  II  N  N N  G  GGG   !            |
|           WW  WW  A    A  R   R   N   NN  II  N   NN  G    G                |
|           W    W  A    A  R    R  N    N  II  N    N   GGGG   !!!           |
|                                                                             |
|     For optimal performance we recommend to set                             |
|       NCORE = 2 up to number-of-cores-per-socket                            |
|     NCORE specifies how many cores store one orbital (NPAR=cpu/NCORE).      |
|     This setting can greatly improve the performance of VASP for DFT.       |
|     The default, NCORE=1 might be grossly inefficient on modern             |
|     multi-core architectures or massively parallel machines. Do your        |
|     own testing! More info at https://www.vasp.at/wiki/index.php/NCORE      |
|     Unfortunately you need to use the default for GW and RPA                |
|     calculations (for HF NCORE is supported but not extensively tested      |
|     yet).                                                                   |
|                                                                             |
 -----------------------------------------------------------------------------

 POTCAR:    PAW_PBE Ce 23Dec2003                  
   SHA256 =  00bd3101dba980d69718c826e9aff48526de61f93249f80fb0d1cde9afca69b7 Ce/POTCAR             
   COPYR  = (c) Copyright 23Dec2003 Georg Kresse                                                    
   COPYR  = This file is part of the software VASP. Any use, copying, and all other rights are regul
   COPYR  = If you do not have a valid VASP license, you may not use, copy or distribute this file. 
   VRHFIN =Ce : [core= Kr 4d10]                                                                     
   LEXCH  = PE                                                                                      
   EATOM  =  1063.0861 eV,   78.1346 Ry                                                             
                                                                                                    
   TITEL  = PAW_PBE Ce 23Dec2003                                                                    
   LULTRA =        F    use ultrasoft PP ?                                                          
   IUNSCR =        1    unscreen: 0-lin 1-nonlin 2-no                                               
   RPACOR =    1.800    partial core radius                                                         
   POMASS =  140.115; ZVAL   =   12.000    mass and valenz                                          
   RCORE  =    2.700    outmost cutoff radius                                                       
   RWIGS  =    2.500; RWIGS  =    1.323    wigner-seitz radius (au A)                               
   ENMAX  =  273.042; ENMIN  =  204.781 eV                                                          
   RCLOC  =    1.810    cutoff for local pot                                                        
   LCOR   =        T    correct aug charges                                                         
   LPAW   =        T    paw PP                                                                      
   EAUG   =  580.196                                                                                
   DEXC   =    0.000                                                                                
   RMAX   =    2.749    core radius for proj-oper                                                   
   RAUG   =    1.300    factor for augmentation sphere                                              
   RDEP   =    2.810    radius for radial grids                                                     
   RDEPT  =    2.162    core radius for aug-charge                                                  
                                                                                                    
   Atomic configuration                                                                             
   14 entries                                                                                       
     n  l   j            E        occ.                                                              
     1  0  0.50    -40258.9816   2.0000                                                             
     2  0  0.50     -6445.4884   2.0000                                                             
     2  1  1.50     -5771.7470   6.0000                                                             
     3  0  0.50     -1387.9739   2.0000                                                             
     3  1  1.50     -1173.8158   6.0000                                                             
     3  2  2.50      -869.9108  10.0000                                                             
     4  0  0.50      -280.8706   2.0000                                                             
     4  1  1.50      -210.9815   6.0000                                                             
     4  2  2.50      -110.4558  10.0000                                                             
     5  0  0.50       -40.5819   2.0000                                                             
     6  0  0.50        -3.7444   2.0000                                                             
     5  1  1.50       -23.2188   6.0000                                                             
     5  2  2.50        -3.0598   1.0000                                                             
     4  3  2.50        -5.3970   1.0000                                                             
   Description                                                                                      
     l       E           TYP  RCUT    TYP  RCUT                                                     
     0    -40.5819164     23  1.500                                                                 
     0     -3.7443793     23  2.300                                                                 
     1    -23.2188445     23  2.000                                                                 
     1     40.8174780     23  2.300                                                                 
     2     -3.0597556     23  2.500                                                                 
     2     13.6058260     23  2.500                                                                 
     3     -5.3970469     23  2.700                                                                 
     3     -5.8505052     23  2.700                                                                 
  local pseudopotential read in
  partial core-charges read in
  partial kinetic energy density read in
  atomic valenz-charges read in
  non local Contribution for L=           0  read in
    real space projection operators read in
  non local Contribution for L=           0  read in
    real space projection operators read in
  non local Contribution for L=           1  read in
    real space projection operators read in
  non local Contribution for L=           1  read in
    real space projection operators read in
  non local Contribution for L=           2  read in
    real space projection operators read in
  non local Contribution for L=           2  read in
    real space projection operators read in
  non local Contribution for L=           3  read in
    real space projection operators read in
  non local Contribution for L=           3  read in
    real space projection operators read in
    PAW grid and wavefunctions read in
 
   number of l-projection  operators is LMAX  =           8
   number of lm-projection operators is LMMAX =          32
 
 POTCAR:    PAW_PBE O 08Apr2002                   
   SHA256 =  818f92134a0a090dccd8ba1447fa70422a3b330e708bb4f08108d8ae51209ddf O/POTCAR              
   COPYR  = (c) Copyright 08Apr2002 Georg Kresse                                                    
   COPYR  = This file is part of the software VASP. Any use, copying, and all other rights are regul
   COPYR  = If you do not have a valid VASP license, you may not use, copy or distribute this file. 
   VRHFIN =O: s2p4                                                                                  
   LEXCH  = PE                                                                                      
   EATOM  =   432.3788 eV,   31.7789 Ry                                                             
                                                                                                    
   TITEL  = PAW_PBE O 08Apr2002                                                                     
   LULTRA =        F    use ultrasoft PP ?                                                          
   IUNSCR =        1    unscreen: 0-lin 1-nonlin 2-no                                               
   RPACOR =    1.200    partial core radius                                                         
   POMASS =   16.000; ZVAL   =    6.000    mass and valenz                                          
   RCORE  =    1.520    outmost cutoff radius                                                       
   RWIGS  =    1.550; RWIGS  =    0.820    wigner-seitz radius (au A)                               
   ENMAX  =  400.000; ENMIN  =  300.000 eV                                                          
   ICORE  =        2    local potential                                                             
   LCOR   =        T    correct aug charges                                                         
   LPAW   =        T    paw PP                                                                      
   EAUG   =  605.392                                                                                
   DEXC   =    0.000                                                                                
   RMAX   =    1.553    core radius for proj-oper                                                   
   RAUG   =    1.300    factor for augmentation sphere                                              
   RDEP   =    1.550    radius for radial grids                                                     
   RDEPT  =    1.329    core radius for aug-charge                                                  
                                                                                                    
   Atomic configuration                                                                             
    4 entries                                                                                       
     n  l   j            E        occ.                                                              
     1  0  0.50      -514.6923   2.0000                                                             
     2  0  0.50       -23.9615   2.0000                                                             
     2  1  0.50        -9.0305   4.0000                                                             
     3  2  1.50        -9.5241   0.0000                                                             
   Description                                                                                      
     l       E           TYP  RCUT    TYP  RCUT                                                     
     0    -23.9615318     23  1.200                                                                 
     0     -9.5240782     23  1.200                                                                 
     1     -9.0304911     23  1.520                                                                 
     1      8.1634956     23  1.520                                                                 
     2     -9.5240782      7  1.500                                                                 
  local pseudopotential read in
  partial core-charges read in
  partial kinetic energy density read in
  kinetic energy density of atom read in
  atomic valenz-charges read in
  non local Contribution for L=           0  read in
    real space projection operators read in
  non local Contribution for L=           0  read in
    real space projection operators read in
  non local Contribution for L=           1  read in
    real space projection operators read in
  non local Contribution for L=           1  read in
    real space projection operators read in
    PAW grid and wavefunctions read in
 
   number of l-projection  operators is LMAX  =           4
   number of lm-projection operators is LMMAX =           8
 
 POTCAR:    PAW_PBE Ir 06Sep2000                  
   SHA256 =  7c6af8d4d487b237782eb51e6f62977b27a1da78c3c96acd1cebefd6c308f120 Ir/POTCAR             
   COPYR  = (c) Copyright 06Sep2000 Georg Kresse                                                    
   COPYR  = This file is part of the software VASP. Any use, copying, and all other rights are regul
   COPYR  = If you do not have a valid VASP license, you may not use, copy or distribute this file. 
   VRHFIN =Ir: s1d8                                                                                 
   LEXCH  = PE                                                                                      
   EATOM  =   560.1833 eV,   41.1723 Ry                                                             
                                                                                                    
   TITEL  = PAW_PBE Ir 06Sep2000                                                                    
   LULTRA =        F    use ultrasoft PP ?                                                          
   IUNSCR =        1    unscreen: 0-lin 1-nonlin 2-no                                               
   RPACOR =    2.250    partial core radius                                                         
   POMASS =  192.220; ZVAL   =    9.000    mass and valenz                                          
   RCORE  =    2.600    outmost cutoff radius                                                       
   RWIGS  =    2.690; RWIGS  =    1.423    wigner-seitz radius (au A)                               
   ENMAX  =  210.864; ENMIN  =  158.148 eV                                                          
   RCLOC  =    1.857    cutoff for local pot                                                        
   LCOR   =        T    correct aug charges                                                         
   LPAW   =        T    paw PP                                                                      
   EAUG   =  318.962                                                                                
   DEXC   =    0.000                                                                                
   RMAX   =    2.667    core radius for proj-oper                                                   
   RAUG   =    1.300    factor for augmentation sphere                                              
   RDEP   =    2.748    radius for radial grids                                                     
   RDEPT  =    2.300    core radius for aug-charge                                                  
                                                                                                    
   Atomic configuration                                                                             
   16 entries                                                                                       
     n  l   j            E        occ.                                                              
     1  0  0.50    -76100.0449   2.0000                                                             
     2  0  0.50    -13308.1683   2.0000                                                             
     2  1  1.50    -11558.0021   6.0000                                                             
     3  0  0.50     -3110.7274   2.0000                                                             
     3  1  1.50     -2599.2109   6.0000                                                             
     3  2  2.50     -2037.1515  10.0000                                                             
     4  0  0.50      -661.6001   2.0000                                                             
     4  1  1.50      -493.8981   6.0000                                                             
     4  2  2.50      -288.1909  10.0000                                                             
     4  3  3.50       -59.5718  14.0000                                                             
     5  0  0.50       -95.3879   2.0000                                                             
     5  1  1.50       -52.2747   6.0000                                                             
     5  2  2.50        -5.4180   8.0000                                                             
     6  0  0.50        -5.5479   1.0000                                                             
     6  1  1.50        -6.8029   0.0000                                                             
     5  3  2.50        -1.3606   0.0000                                                             
   Description                                                                                      
     l       E           TYP  RCUT    TYP  RCUT                                                     
     2     -5.4179967     23  2.600                                                                 
     2     -6.7785793     23  2.600                                                                 
     0     -5.5478636     23  2.600                                                                 
     0      2.2542272     23  2.600                                                                 
     1     -2.7211652     23  2.600                                                                 
     1     20.4087390     23  2.600                                                                 
  local pseudopotential read in
  partial core-charges read in
  partial kinetic energy density read in
  atomic valenz-charges read in
  non local Contribution for L=           2  read in
    real space projection operators read in
  non local Contribution for L=           2  read in
    real space projection operators read in
  non local Contribution for L=           0  read in
    real space projection operators read in
  non local Contribution for L=           0  read in
    real space projection operators read in
  non local Contribution for L=           1  read in
    real space projection operators read in
  non local Contribution for L=           1  read in
    real space projection operators read in
    PAW grid and wavefunctions read in
 
   number of l-projection  operators is LMAX  =           6
   number of lm-projection operators is LMMAX =          18
 
 -----------------------------------------------------------------------------
|                                                                             |
|               ----> ADVICE to this user running VASP <----                  |
|                                                                             |
|     You have a (more or less) 'large supercell' and for larger cells it     |
|     might be more efficient to use real-space projection operators.         |
|     Therefore, try LREAL= Auto in the INCAR file.                           |
|     Mind: For very accurate calculation, you might also keep the            |
|     reciprocal projection scheme (i.e. LREAL=.FALSE.).                      |
|                                                                             |
 -----------------------------------------------------------------------------

  PAW_PBE Ce 23Dec2003                  :
 energy of atom  1       EATOM=-1063.0861
 kinetic energy error for atom=    0.0133 (will be added to EATOM!!)
  PAW_PBE O 08Apr2002                   :
 energy of atom  2       EATOM= -432.3788
 kinetic energy error for atom=    0.0208 (will be added to EATOM!!)
  PAW_PBE Ir 06Sep2000                  :
 energy of atom  3       EATOM= -560.1833
 kinetic energy error for atom=    0.0013 (will be added to EATOM!!)
 
 
 POSCAR: Generated by VASPKIT code
  positions in direct lattice
  No initial velocities read in


 exchange-correlation table for PE
   RHO(1)=    0.500       N(1)  =     2000
   RHO(2)=  100.500       N(2)  =     4000
 


--------------------------------------------------------------------------------------------------------


 ion  position               nearest neighbor table
   1  0.000  0.000  0.460-  22 2.37  61 2.37  52 2.37  31 2.37  21 2.37  62 2.37  19 2.37  23 2.37
                            68 3.04  65 3.14
   2  0.222  0.111  0.310-  50 2.37  43 2.37  28 2.37  25 2.37  23 2.37  20 2.37  21 2.37
   3  0.333  0.000  0.460-  27 2.37  51 2.37  21 2.37  52 2.37  57 2.37  28 2.37  24 2.37  26 2.37
                            66 3.10
   4  0.556  0.111  0.310-  48 2.37  30 2.37  33 2.37  55 2.37  26 2.37  25 2.37  28 2.37
   5  0.667  0.000  0.460-  32 2.37  56 2.37  62 2.37  31 2.37  26 2.37  29 2.37  33 2.37  57 2.37
                            69 3.02
   6  0.889  0.111  0.310-  60 2.37  38 2.37  20 2.37  23 2.37  33 2.37  30 2.37  31 2.37
   7  0.000  0.333  0.460-  31 2.37  22 2.37  32 2.37  36 2.37  46 2.37  38 2.37  34 2.37  37 2.37
                            70 2.97
   8  0.222  0.444  0.310-  20 2.37  38 2.37  43 2.37  40 2.37  36 2.37  58 2.37  35 2.37
   9  0.333  0.333  0.460-  21 2.37  22 2.37  27 2.37  36 2.37  39 2.37  43 2.37  42 2.37  41 2.37
                            65 2.97  64 3.08
  10  0.556  0.444  0.310-  48 2.37  25 2.37  45 2.37  41 2.37  63 2.37  43 2.37  40 2.37
  11  0.667  0.333  0.460-  26 2.37  32 2.37  46 2.37  41 2.37  44 2.37  48 2.37  47 2.37  27 2.37
                            66 3.01  67 3.03
  12  0.889  0.444  0.310-  30 2.37  38 2.37  48 2.37  35 2.37  46 2.37  53 2.37  45 2.37
  13  0.000  0.667  0.460-  52 2.37  61 2.37  51 2.37  47 2.37  37 2.37  53 2.37  49 2.37  46 2.37
                            67 3.07
  14  0.222  0.778  0.310-  35 2.37  28 2.37  58 2.37  55 2.37  53 2.37  50 2.37  51 2.37
  15  0.333  0.667  0.460-  57 2.37  51 2.37  37 2.37  42 2.37  54 2.37  58 2.37  36 2.37  56 2.37
                            69 3.08  70 3.14
  16  0.556  0.778  0.310-  33 2.37  60 2.37  63 2.37  40 2.37  56 2.37  55 2.37  58 2.37
  17  0.667  0.667  0.460-  62 2.37  61 2.37  56 2.37  47 2.37  59 2.37  63 2.37  41 2.37  42 2.37
                            64 3.03  68 3.06
  18  0.889  0.778  0.310-  45 2.37  23 2.37  50 2.37  53 2.37  63 2.37  60 2.37  61 2.37
  19  0.000  0.000  0.572-  68 1.92  65 2.07   1 2.37
  20  0.111  0.222  0.272-   8 2.37   6 2.37   2 2.37
  21  0.222  0.111  0.422-   9 2.37   3 2.37   1 2.37   2 2.37
  22  0.111  0.222  0.497-  65 1.88   1 2.37   7 2.37   9 2.37
  23  0.000  0.000  0.347-  18 2.37   6 2.37   2 2.37   1 2.37
  24  0.333  0.000  0.572-  66 2.00   3 2.37
  25  0.444  0.222  0.272-   2 2.37  10 2.37   4 2.37
  26  0.556  0.111  0.422-  11 2.37   5 2.37   4 2.37   3 2.37
  27  0.444  0.222  0.497-  66 1.97   3 2.37   9 2.37  11 2.37
  28  0.333  0.000  0.347-  14 2.37   2 2.37   3 2.37   4 2.37
  29  0.667  0.000  0.572-  69 1.89   5 2.37
  30  0.778  0.222  0.272-  12 2.37   4 2.37   6 2.37
  31  0.889  0.111  0.422-   7 2.37   1 2.37   5 2.37   6 2.37
  32  0.778  0.222  0.497-   5 2.37  11 2.37   7 2.37
  33  0.667  0.000  0.347-  16 2.37   6 2.37   4 2.37   5 2.37
  34  0.000  0.333  0.572-  70 1.80   7 2.37
  35  0.111  0.556  0.272-  14 2.37  12 2.37   8 2.37
  36  0.222  0.444  0.422-   7 2.37   9 2.37   8 2.37  15 2.37
  37  0.111  0.556  0.497-  70 1.93  15 2.37  13 2.37   7 2.37
  38  0.000  0.333  0.347-   6 2.37   8 2.37  12 2.37   7 2.37
  39  0.333  0.333  0.572-  65 1.80  64 1.97   9 2.37
  40  0.444  0.556  0.272-  16 2.37   8 2.37  10 2.37
  41  0.556  0.444  0.422-  11 2.37  10 2.37  17 2.37   9 2.37
  42  0.444  0.556  0.497-  64 1.87  15 2.37   9 2.37  17 2.37
  43  0.333  0.333  0.347-   2 2.37   8 2.37   9 2.37  10 2.37
  44  0.667  0.333  0.572-  66 1.87  67 1.91  11 2.37
  45  0.778  0.556  0.272-  18 2.37  10 2.37  12 2.37
  46  0.889  0.444  0.422-   7 2.37  11 2.37  12 2.37  13 2.37
  47  0.778  0.556  0.497-  67 1.87  17 2.37  13 2.37  11 2.37
  48  0.667  0.333  0.347-   4 2.37  12 2.37  10 2.37  11 2.37
  49  0.000  0.667  0.572-  67 1.96  13 2.37
  50  0.111  0.889  0.272-   2 2.37  18 2.37  14 2.37
  51  0.222  0.778  0.422-   3 2.37  15 2.37  13 2.37  14 2.37
  52  0.111  0.889  0.497-  13 2.37   1 2.37   3 2.37
  53  0.000  0.667  0.347-  18 2.37  14 2.37  13 2.37  12 2.37
  54  0.333  0.667  0.572-  69 1.98  70 2.07  15 2.37
  55  0.444  0.889  0.272-  14 2.37   4 2.37  16 2.37
  56  0.556  0.778  0.422-   5 2.37  17 2.37  16 2.37  15 2.37
  57  0.444  0.889  0.497-  69 1.94  15 2.37   3 2.37   5 2.37
  58  0.333  0.667  0.347-  14 2.37  15 2.37   8 2.37  16 2.37
  59  0.667  0.667  0.572-  64 1.90  68 1.94  17 2.37
  60  0.778  0.889  0.272-   6 2.37  16 2.37  18 2.37
  61  0.889  0.778  0.422-   1 2.37  13 2.37  17 2.37  18 2.37
  62  0.778  0.889  0.497-  68 1.94  17 2.37   5 2.37   1 2.37
  63  0.667  0.667  0.347-  16 2.37  18 2.37  17 2.37  10 2.37
  64  0.498  0.508  0.572-  42 1.87  59 1.90  39 1.97  17 3.03   9 3.08
  65  0.174  0.183  0.572-  39 1.80  22 1.88  19 2.07   9 2.97   1 3.14
  66  0.509  0.169  0.572-  44 1.87  27 1.97  24 2.00  11 3.01   3 3.10
  67  0.826  0.502  0.572-  47 1.87  44 1.91  49 1.96  11 3.03  13 3.07
  68  0.835  0.833  0.572-  19 1.92  62 1.94  59 1.94   1 3.04  17 3.06
  69  0.505  0.836  0.572-  29 1.89  57 1.94  54 1.98   5 3.02  15 3.08
  70  0.155  0.488  0.572-  34 1.80  37 1.93  54 2.07   7 2.97  15 3.14
 
  LATTYP: Found a hexagonal cell.
 ALAT       =    11.5981998444
 C/A-ratio  =     1.8147816808
  
  Lattice vectors:
  
 A1 = (  11.5981998444,   0.0000000000,   0.0000000000)
 A2 = (  -5.7990999222,  10.0443357034,   0.0000000000)
 A3 = (   0.0000000000,   0.0000000000,  21.0482006073)


Analysis of symmetry for initial positions (statically):
=====================================================================
 Subroutine PRICEL returns:
 Original cell was already a primitive cell.
 

 Routine SETGRP: Setting up the symmetry group for a 
 hexagonal supercell.


 Subroutine GETGRP returns: Found  1 space group operations
 (whereof  1 operations were pure point group operations)
 out of a pool of 24 trial point group operations.


The static configuration has the point symmetry C_1 .


Analysis of symmetry for dynamics (positions and initial velocities):
=====================================================================
 Subroutine PRICEL returns:
 Original cell was already a primitive cell.
 

 Routine SETGRP: Setting up the symmetry group for a 
 hexagonal supercell.


 Subroutine GETGRP returns: Found  1 space group operations
 (whereof  1 operations were pure point group operations)
 out of a pool of 24 trial point group operations.


The dynamic configuration has the point symmetry C_1 .


Analysis of constrained symmetry for selective dynamics:
=====================================================================
 Subroutine PRICEL returns:
 Original cell was already a primitive cell.
 

 Routine SETGRP: Setting up the symmetry group for a 
 hexagonal supercell.


 Subroutine GETGRP returns: Found  1 space group operations
 (whereof  1 operations were pure point group operations)
 out of a pool of 24 trial point group operations.


The constrained configuration has the point symmetry C_1 .


Analysis of structural, dynamic, and magnetic symmetry:
=====================================================================
 Subroutine PRICEL returns:
 Original cell was already a primitive cell.
 

 Routine SETGRP: Setting up the symmetry group for a 
 hexagonal supercell.


 Subroutine GETGRP returns: Found  1 space group operations
 (whereof  1 operations were pure point group operations)
 out of a pool of 24 trial point group operations.


The overall configuration has the point symmetry C_1 .


 Subroutine INISYM returns: Found  1 space group operations
 (whereof  1 operations are pure point group operations),
 and found     1 'primitive' translations


----------------------------------------------------------------------------------------

                                     Primitive cell                                     

  volume of cell :    2452.0357

  direct lattice vectors                    reciprocal lattice vectors
    11.598199844  0.000000000  0.000000000     0.086220277  0.049779300  0.000000000
    -5.799099922 10.044335703  0.000000000     0.000000000  0.099558600  0.000000000
     0.000000000  0.000000000 21.048200607     0.000000000  0.000000000  0.047509999

  length of vectors
    11.598199844 11.598199844 21.048200607     0.099558600  0.099558600  0.047509999

  position of ions in fractional coordinates (direct lattice)
     0.000000000  0.000000000  0.459930000
     0.222220000  0.111110000  0.309960000
     0.333330000  0.000000000  0.459930000
     0.555560000  0.111110000  0.309960000
     0.666670000  0.000000000  0.459930000
     0.888890000  0.111110000  0.309960000
     1.000000000  0.333330000  0.459930000
     0.222220000  0.444440000  0.309960000
     0.333330000  0.333330000  0.459930000
     0.555560000  0.444440000  0.309960000
     0.666670000  0.333330000  0.459930000
     0.888890000  0.444440000  0.309960000
     1.000000000  0.666670000  0.459930000
     0.222220000  0.777780000  0.309960000
     0.333330000  0.666670000  0.459930000
     0.555560000  0.777780000  0.309960000
     0.666670000  0.666670000  0.459930000
     0.888890000  0.777780000  0.309960000
     0.000000000  0.000000000  0.572410000
     0.111110000  0.222220000  0.272470000
     0.222220000  0.111110000  0.422440000
     0.111110000  0.222220000  0.497420000
     0.000000000  0.000000000  0.347450000
     0.333330000  0.000000000  0.572410000
     0.444440000  0.222220000  0.272470000
     0.555560000  0.111110000  0.422440000
     0.444440000  0.222220000  0.497420000
     0.333330000  0.000000000  0.347450000
     0.666670000  0.000000000  0.572410000
     0.777780000  0.222220000  0.272470000
     0.888890000  0.111110000  0.422440000
     0.777780000  0.222220000  0.497420000
     0.666670000  0.000000000  0.347450000
     1.000000000  0.333330000  0.572410000
     0.111110000  0.555560000  0.272470000
     0.222220000  0.444440000  0.422440000
     0.111110000  0.555560000  0.497420000
     1.000000000  0.333330000  0.347450000
     0.333330000  0.333330000  0.572410000
     0.444440000  0.555560000  0.272470000
     0.555560000  0.444440000  0.422440000
     0.444440000  0.555560000  0.497420000
     0.333330000  0.333330000  0.347450000
     0.666670000  0.333330000  0.572410000
     0.777780000  0.555560000  0.272470000
     0.888890000  0.444440000  0.422440000
     0.777780000  0.555560000  0.497420000
     0.666670000  0.333330000  0.347450000
     1.000000000  0.666670000  0.572410000
     0.111110000  0.888890000  0.272470000
     0.222220000  0.777780000  0.422440000
     0.111110000  0.888890000  0.497420000
     1.000000000  0.666670000  0.347450000
     0.333330000  0.666670000  0.572410000
     0.444440000  0.888890000  0.272470000
     0.555560000  0.777780000  0.422440000
     0.444440000  0.888890000  0.497420000
     0.333330000  0.666670000  0.347450000
     0.666670000  0.666670000  0.572410000
     0.777780000  0.888890000  0.272470000
     0.888890000  0.777780000  0.422440000
     0.777780000  0.888890000  0.497420000
     0.666670000  0.666670000  0.347450000
     0.498230000  0.508280000  0.572110000
     0.173510000  0.182880000  0.572110000
     0.509070000  0.169240000  0.572110000
     0.826070000  0.502270000  0.572110000
     0.835470000  0.833060000  0.572110000
     0.504680000  0.836490000  0.572110000
     0.154810000  0.488070000  0.572110000

  ion indices of the primitive-cell ions
   primitive index   ion index
                 1           1
                 2           2
                 3           3
                 4           4
                 5           5
                 6           6
                 7           7
                 8           8
                 9           9
                10          10
                11          11
                12          12
                13          13
                14          14
                15          15
                16          16
                17          17
                18          18
                19          19
                20          20
                21          21
                22          22
                23          23
                24          24
                25          25
                26          26
                27          27
                28          28
                29          29
                30          30
                31          31
                32          32
                33          33
                34          34
                35          35
                36          36
                37          37
                38          38
                39          39
                40          40
                41          41
                42          42
                43          43
                44          44
                45          45
                46          46
                47          47
                48          48
                49          49
                50          50
                51          51
                52          52
                53          53
                54          54
                55          55
                56          56
                57          57
                58          58
                59          59
                60          60
                61          61
                62          62
                63          63
                64          64
                65          65
                66          66
                67          67
                68          68
                69          69
                70          70

----------------------------------------------------------------------------------------

 
 
 KPOINTS: K-Spacing Value to Generate K-Mesh: 0.03

Automatic generation of k-mesh.
 Grid dimensions read from file:
 generate k-points for:    1    1    1

 Generating k-lattice:

  Cartesian coordinates                     Fractional coordinates (reciprocal lattice)
     0.086220277  0.049779300  0.000000000     1.000000000 -0.000000000  0.000000000
     0.000000000  0.099558600  0.000000000     0.000000000  1.000000000  0.000000000
     0.000000000  0.000000000  0.047509999     0.000000000  0.000000000  1.000000000

  Length of vectors
     0.099558600  0.099558600  0.047509999

  Shift w.r.t. Gamma in fractional coordinates (k-lattice)
     0.000000000  0.000000000  0.000000000

 
 Subroutine IBZKPT returns following result:
 ===========================================
 
 Found      1 irreducible k-points:
 
 Following reciprocal coordinates:
            Coordinates               Weight
  0.000000  0.000000  0.000000      1.000000
 
 Following cartesian coordinates:
            Coordinates               Weight
  0.000000  0.000000  0.000000      1.000000
 


--------------------------------------------------------------------------------------------------------




 Dimension of arrays:
   k-points           NKPTS =      1   k-points in BZ     NKDIM =      1   number of bands    NBANDS=    384
   number of dos      NEDOS =    301   number of ions     NIONS =     70
   non local maximal  LDIM  =      8   non local SUM 2l+1 LMDIM =     32
   total plane-waves  NPLWV = ******
   max r-space proj   IRMAX =      1   max aug-charges    IRDMAX= 305922
   dimension x,y,z NGX =    90 NGY =   90 NGZ =  160
   dimension x,y,z NGXF=   180 NGYF=  180 NGZF=  320
   support grid    NGXF=   360 NGYF=  360 NGZF=  640
   ions per type =              18  45   7
   NGX,Y,Z   is equivalent  to a cutoff of  12.90, 12.90, 12.64 a.u.
   NGXF,Y,Z  is equivalent  to a cutoff of  25.80, 25.80, 25.27 a.u.

 SYSTEM =  unknown system                          
 POSCAR =  Generated by VASPKIT code               

 Startparameter for this run:
   NWRITE =      2    write-flag & timer
   PREC   = accura    normal or accurate (medium, high low for compatibility)
   ISTART =      0    job   : 0-new  1-cont  2-samecut
   ICHARG =      2    charge: 1-file 2-atom 10-const
   ISPIN  =      2    spin polarized calculation?
   LNONCOLLINEAR =      F non collinear calculations
   LSORBIT =      F    spin-orbit coupling
   INIWAV =      1    electr: 0-lowe 1-rand  2-diag
   LASPH  =      T    aspherical Exc in radial PAW
 Electronic Relaxation 1
   ENCUT  =  520.0 eV  38.22 Ry    6.18 a.u.  21.56 21.56 39.14*2*pi/ulx,y,z
   ENINI  =  520.0     initial cutoff
   ENAUG  =  605.4 eV  augmentation charge cutoff
   NELM   =     90;   NELMIN=  6; NELMDL=  0     # of ELM steps 
   EDIFF  = 0.1E-05   stopping-criterion for ELM
   LREAL  =      F    real-space projection
   NLSPLINE    = F    spline interpolate recip. space projectors
   LCOMPAT=      F    compatible to vasp.4.4
   GGA_COMPAT  = T    GGA compatible to vasp.4.4-vasp.4.6
   LMAXPAW     = -100 max onsite density
   LMAXMIX     =    6 max onsite mixed and CHGCAR
   VOSKOWN=      0    Vosko Wilk Nusair interpolation
   ROPT   =    0.00000   0.00000   0.00000
 Ionic relaxation
   EDIFFG = -.2E-01   stopping-criterion for IOM
   NSW    =    300    number of steps for IOM
   NBLOCK =      1;   KBLOCK =    300    inner block; outer block 
   IBRION =      2    ionic relax: 0-MD 1-quasi-New 2-CG
   NFREE  =      1    steps in history (QN), initial steepest desc. (CG)
   ISIF   =      2    stress and relaxation
   IWAVPR =     11    prediction:  0-non 1-charg 2-wave 3-comb
   ISYM   =      2    0-nonsym 1-usesym 2-fastsym
   LCORR  =      T    Harris-Foulkes like correction to forces

   POTIM  = 0.5000    time-step for ionic-motion
   TEIN   =    0.0    initial temperature
   TEBEG  =    0.0;   TEEND  =   0.0 temperature during run
   SMASS  =  -3.00    Nose mass-parameter (am)
   estimated Nose-frequenzy (Omega)   =  0.10E-29 period in steps = 0.13E+47 mass=  -0.307E-26a.u.
   SCALEE = 1.0000    scale energy and forces
   NPACO  =    256;   APACO  = 10.0  distance and # of slots for P.C.
   PSTRESS=    0.0 pullay stress

  Mass of Ions in am
   POMASS = 140.12 16.00192.22
  Ionic Valenz
   ZVAL   =  12.00  6.00  9.00
  Atomic Wigner-Seitz radii
   RWIGS  =  -1.00 -1.00 -1.00
  virtual crystal weights 
   VCA    =   1.00  1.00  1.00
   NELECT =     549.0000    total number of electrons
   NUPDOWN=      -1.0000    fix difference up-down

 DOS related values:
   EMIN   =  10.00;   EMAX   =-10.00  energy-range for DOS
   EFERMI =   0.00;   METHOD = LEGACY      
   ISMEAR =     0;   SIGMA  =   0.05  broadening in eV -4-tet -1-fermi 0-gaus

 Electronic relaxation 2 (details)
   IALGO  =     38    algorithm
   LDIAG  =      T    sub-space diagonalisation (order eigenvalues)
   LSUBROT=      F    optimize rotation matrix (better conditioning)
   TURBO    =      0    0=normal 1=particle mesh
   IRESTART =      0    0=no restart 2=restart with 2 vectors
   NREBOOT  =      0    no. of reboots
   NMIN     =      0    reboot dimension
   EREF     =   0.00    reference energy to select bands
   IMIX   =      4    mixing-type and parameters
     AMIX     =   0.40;   BMIX     =  1.00
     AMIX_MAG =   1.60;   BMIX_MAG =  1.00
     AMIN     =   0.10
     WC   =   100.;   INIMIX=   1;  MIXPRE=   1;  MAXMIX= -45

 Intra band minimization:
   WEIMIN = 0.0010     energy-eigenvalue tresh-hold
   EBREAK =  0.65E-09  absolut break condition
   DEPER  =   0.30     relativ break condition  

   TIME   =   0.40     timestep for ELM

  volume/ion in A,a.u.               =      35.03       236.39
  Fermi-wavevector in a.u.,A,eV,Ry     =   0.994085  1.878548 13.445335  0.988204
  Thomas-Fermi vector in A             =   2.126011
 
 Write flags
   LWAVE        =      F    write WAVECAR
   LDOWNSAMPLE  =      F    k-point downsampling of WAVECAR
   LCHARG       =      F    write CHGCAR
   LVTOT        =      F    write LOCPOT, total local potential
   LVHAR        =      F    write LOCPOT, Hartree potential only
   WRT_POTENTIAL= false  ! write potential to hdf5 file
   LELF         =      F    write electronic localiz. function (ELF)
   LORBIT       =      0    0 simple, 1 ext, 2 COOP (PROOUT), +10 PAW based schemes


 Dipole corrections
   LMONO      =      F    monopole corrections only (constant potential shift)
   LDIPOL     =      F    correct potential (dipole corrections)
   IDIPOL     =      0    1-x, 2-y, 3-z, 4-all directions 
   EPSILON    =  1.0000000 bulk dielectric constant
   LVACPOTAV  =      F  vacuum potentials using an averaging scheme for the charge density
   VACPOTFLAT =  0.1000000 required flatness to determine vacuum potential
 LDA+U is selected, type is set to LDAUTYPE =  2
   angular momentum for each species LDAUL =     3   -1    2
   U (eV)           for each species LDAUU =   5.0  0.0  2.0
   J (eV)           for each species LDAUJ =   0.0  0.0  0.0
 Exchange correlation treatment:
   GGA     = PE    functional components
   XC_C    = 1    coefficients multiplying the functional components
   LIBXC   =     F    Libxc                    
   VOSKOWN =     0    Vosko Wilk Nusair interpolation
   LHFCALC =     F    Hartree Fock is set to
   LHFONE  =     F    Hartree Fock one center treatment
   AEXX    =    0.0000 exact exchange contribution

 Parameters of functionals:
   PE:
     No parameter
 
 Van der Waals corrections
   IVDW    =     0    specifies the selected vdW correction

 Linear response parameters
   LEPSILON=     F    determine dielectric tensor
   LRPA    =     F    only Hartree local field effects (RPA)
   LNABLA  =     F    use nabla operator in PAW spheres
   LVEL    =     F    velocity operator in full k-point grid
   CSHIFT  =0.1000    complex shift for real part using Kramers Kronig
   OMEGAMAX=  -1.0    maximum frequency
   DEG_THRESHOLD= 0.2000000E-02 threshold for treating states as degnerate
   RTIME   =   -0.100 relaxation time in fs
  (WPLASMAI=    0.000 imaginary part of plasma frequency in eV, 0.658/RTIME)
   DFIELD  = 0.0000000 0.0000000 0.0000000 field for delta impulse in time
 
  Optional k-point grid parameters
   LKPOINTS_OPT  =     F    use optional k-point grid
   KPOINTS_OPT_MODE=     1    mode for optional k-point grid
 
 Orbital magnetization related:
   ORBITALMAG=     F  switch on orbital magnetization
   LCHIMAG   =     F  perturbation theory with respect to B field
   DQ        =  0.001000  dq finite difference perturbation B field
   LLRAUG    =     F  two centre corrections for induced B field
   LBONE     =     F  B-component reconstruction in AE one-centre
   LVGVCALC  =     T  calculate vGv susceptibility
   LVGVAPPL  =     F  apply vGv susceptibility instead of pGv for G=0

 Random number generation:
   RANDOM_GENERATOR = DEFAULT
   PCG_SEED         = not used


--------------------------------------------------------------------------------------------------------


 conjugate gradient relaxation of ions
   using selective dynamics as specified on POSCAR
 charge density and potential will be updated during run
 spin polarized calculation
 Variant of blocked Davidson
 Davidson routine will perform the subspace rotation
 perform sub-space diagonalisation
    after iterative eigenvector-optimisation
 modified Broyden-mixing scheme, WC =      100.0
 initial mixing is a Kerker type mixing with AMIX =  0.4000 and BMIX =      1.0000
 Hartree-type preconditioning will be used
 using additional bands          109
 reciprocal scheme for non local part
 use partial core corrections
 calculate Harris-corrections to forces 
   (improved forces if not selfconsistent)
 use gradient corrections 
 use of overlap-Matrix (Vanderbilt PP)
 Gauss-broadening in eV      SIGMA  =   0.05


--------------------------------------------------------------------------------------------------------


  energy-cutoff  :      520.00
  volume of cell :     2452.04
      direct lattice vectors                 reciprocal lattice vectors
    11.598199844  0.000000000  0.000000000     0.086220277  0.049779300  0.000000000
    -5.799099922 10.044335703  0.000000000     0.000000000  0.099558600  0.000000000
     0.000000000  0.000000000 21.048200607     0.000000000  0.000000000  0.047509999

  length of vectors
    11.598199844 11.598199844 21.048200607     0.099558600  0.099558600  0.047509999


 
 k-points in units of 2pi/SCALE and weight: K-Spacing Value to Generate K-Mesh: 0.03
   0.00000000  0.00000000  0.00000000       1.000
 
 k-points in reciprocal lattice and weights: K-Spacing Value to Generate K-Mesh: 0.03
   0.00000000  0.00000000  0.00000000       1.000
 
 position of ions in fractional coordinates (direct lattice) 
   0.00000000  0.00000000  0.45993000
   0.22222000  0.11111000  0.30996000
   0.33333000  0.00000000  0.45993000
   0.55556000  0.11111000  0.30996000
   0.66667000  0.00000000  0.45993000
   0.88889000  0.11111000  0.30996000
   0.00000000  0.33333000  0.45993000
   0.22222000  0.44444000  0.30996000
   0.33333000  0.33333000  0.45993000
   0.55556000  0.44444000  0.30996000
   0.66667000  0.33333000  0.45993000
   0.88889000  0.44444000  0.30996000
   0.00000000  0.66667000  0.45993000
   0.22222000  0.77778000  0.30996000
   0.33333000  0.66667000  0.45993000
   0.55556000  0.77778000  0.30996000
   0.66667000  0.66667000  0.45993000
   0.88889000  0.77778000  0.30996000
   0.00000000  0.00000000  0.57241000
   0.11111000  0.22222000  0.27247000
   0.22222000  0.11111000  0.42244000
   0.11111000  0.22222000  0.49742000
   0.00000000  0.00000000  0.34745000
   0.33333000  0.00000000  0.57241000
   0.44444000  0.22222000  0.27247000
   0.55556000  0.11111000  0.42244000
   0.44444000  0.22222000  0.49742000
   0.33333000  0.00000000  0.34745000
   0.66667000  0.00000000  0.57241000
   0.77778000  0.22222000  0.27247000
   0.88889000  0.11111000  0.42244000
   0.77778000  0.22222000  0.49742000
   0.66667000  0.00000000  0.34745000
   0.00000000  0.33333000  0.57241000
   0.11111000  0.55556000  0.27247000
   0.22222000  0.44444000  0.42244000
   0.11111000  0.55556000  0.49742000
   0.00000000  0.33333000  0.34745000
   0.33333000  0.33333000  0.57241000
   0.44444000  0.55556000  0.27247000
   0.55556000  0.44444000  0.42244000
   0.44444000  0.55556000  0.49742000
   0.33333000  0.33333000  0.34745000
   0.66667000  0.33333000  0.57241000
   0.77778000  0.55556000  0.27247000
   0.88889000  0.44444000  0.42244000
   0.77778000  0.55556000  0.49742000
   0.66667000  0.33333000  0.34745000
   0.00000000  0.66667000  0.57241000
   0.11111000  0.88889000  0.27247000
   0.22222000  0.77778000  0.42244000
   0.11111000  0.88889000  0.49742000
   0.00000000  0.66667000  0.34745000
   0.33333000  0.66667000  0.57241000
   0.44444000  0.88889000  0.27247000
   0.55556000  0.77778000  0.42244000
   0.44444000  0.88889000  0.49742000
   0.33333000  0.66667000  0.34745000
   0.66667000  0.66667000  0.57241000
   0.77778000  0.88889000  0.27247000
   0.88889000  0.77778000  0.42244000
   0.77778000  0.88889000  0.49742000
   0.66667000  0.66667000  0.34745000
   0.49823000  0.50828000  0.57211000
   0.17351000  0.18288000  0.57211000
   0.50907000  0.16924000  0.57211000
   0.82607000  0.50227000  0.57211000
   0.83547000  0.83306000  0.57211000
   0.50468000  0.83649000  0.57211000
   0.15481000  0.48807000  0.57211000
 
 position of ions in cartesian coordinates  (Angst):
   0.00000000  0.00000000  9.68069891
   1.93301398  1.11602614  6.52410026
   3.86602795  0.00000000  9.68069891
   5.79915791  1.11602614  6.52410026
   7.73217189  0.00000000  9.68069891
   9.66518587  1.11602614  6.52410026
  -1.93301398  3.34807842  9.68069891
  -0.00000000  4.46410456  6.52410026
   1.93301398  3.34807842  9.68069891
   3.86614394  4.46410456  6.52410026
   5.79915791  3.34807842  9.68069891
   7.73217189  4.46410456  6.52410026
  -3.86608595  6.69625728  9.68069891
  -1.93307197  7.81228342  6.52410026
  -0.00005799  6.69625728  9.68069891
   1.93307197  7.81228342  6.52410026
   3.86608595  6.69625728  9.68069891
   5.79909992  7.81228342  6.52410026
   0.00000000  0.00000000 12.04820051
  -0.00000000  2.23205228  5.73500322
   1.93301398  1.11602614  8.89160186
  -0.00000000  2.23205228 10.46979595
   0.00000000  0.00000000  7.31319730
   3.86602795  0.00000000 12.04820051
   3.86602795  2.23205228  5.73500322
   5.79915791  1.11602614  8.89160186
   3.86602795  2.23205228 10.46979595
   3.86602795  0.00000000  7.31319730
   7.73217189  0.00000000 12.04820051
   7.73217189  2.23205228  5.73500322
   9.66518587  1.11602614  8.89160186
   7.73217189  2.23205228 10.46979595
   7.73217189  0.00000000  7.31319730
  -1.93301398  3.34807842 12.04820051
  -1.93307197  5.58023114  5.73500322
  -0.00000000  4.46410456  8.89160186
  -1.93307197  5.58023114 10.46979595
  -1.93301398  3.34807842  7.31319730
   1.93301398  3.34807842 12.04820051
   1.93295599  5.58023114  5.73500322
   3.86614394  4.46410456  8.89160186
   1.93295599  5.58023114 10.46979595
   1.93301398  3.34807842  7.31319730
   5.79915791  3.34807842 12.04820051
   5.79909992  5.58023114  5.73500322
   7.73217189  4.46410456  8.89160186
   5.79909992  5.58023114 10.46979595
   5.79915791  3.34807842  7.31319730
  -3.86608595  6.69625728 12.04820051
  -3.86608595  8.92830956  5.73500322
  -1.93307197  7.81228342  8.89160186
  -3.86608595  8.92830956 10.46979595
  -3.86608595  6.69625728  7.31319730
  -0.00005799  6.69625728 12.04820051
  -0.00005799  8.92830956  5.73500322
   1.93307197  7.81228342  8.89160186
  -0.00005799  8.92830956 10.46979595
  -0.00005799  6.69625728  7.31319730
   3.86608595  6.69625728 12.04820051
   3.86608595  8.92830956  5.73500322
   5.79909992  7.81228342  8.89160186
   3.86608595  8.92830956 10.46979595
   3.86608595  6.69625728  7.31319730
   2.83100460  5.10533495 12.04188605
   0.95186426  1.83690811 12.04188605
   4.92285592  1.69990337 12.04188605
   6.66821103  5.04496849 12.04188605
   4.85894984  8.36753430 12.04188605
   1.00249040  8.40198637 12.04188605
  -1.03484938  4.90233893 12.04188605
 


--------------------------------------------------------------------------------------------------------


 use parallel FFT for orbitals z direction half grid
 k-point     1 :   0.0000 0.0000 0.0000  plane waves:   33034

 maximum and minimum number of plane-waves per node :      8261     8256

 maximum number of plane-waves:     33034
 maximum index in each direction: 
   IXMAX=   21   IYMAX=   21   IZMAX=   39
   IXMIN=  -21   IYMIN=  -21   IZMIN=    0


 parallel 3D FFT for wavefunctions:
    minimum data exchange during FFTs selected (reduces bandwidth)
 parallel 3D FFT for charge:
    minimum data exchange during FFTs selected (reduces bandwidth)


 total amount of memory used by VASP MPI-rank0    95656. kBytes
=======================================================================

   base      :      30000. kBytes
   nonl-proj :      15677. kBytes
   fftplans  :      15277. kBytes
   grid      :      31656. kBytes
   one-center:        884. kBytes
   wavefun   :       2162. kBytes
 
     INWAV:  cpu time      0.0000: real time      0.0000
 Broyden mixing: mesh for mixing (old mesh)
   NGX = 43   NGY = 43   NGZ = 79
  (NGX  =180   NGY  =180   NGZ  =320)
  gives a total of 146071 points

 initial charge density was supplied:
 charge density of overlapping atoms calculated
 number of electron     549.0000000 magnetization      49.2000000
 keeping initial charge density in first step


--------------------------------------------------------------------------------------------------------


 Maximum index for augmentation-charges         4680 (set IRDMAX)


--------------------------------------------------------------------------------------------------------


 First call to EWALD:  gamma=   0.131
 Maximum number of real-space cells 4x 4x 2
 Maximum number of reciprocal cells 2x 2x 4

    FEWALD:  cpu time      0.0047: real time      0.0047


--------------------------------------- Ionic step        1  -------------------------------------------




--------------------------------------- Iteration      1(   1)  ---------------------------------------


    POTLOK:  cpu time      0.1405: real time      0.1474
    SETDIJ:  cpu time      1.0009: real time      1.0014
     EDDAV:  cpu time      1.7013: real time      1.8335
       DOS:  cpu time      0.0111: real time      0.0120
    --------------------------------------------
      LOOP:  cpu time      2.8538: real time      2.9944

 eigenvalue-minimisations  :  1536
 total energy-change (2. order) : 0.9712774E+04  (-0.2481553E+05)
 number of electron     549.0000000 magnetization      49.2000000
 augmentation part      549.0000000 magnetization      49.2000000

 Free energy of the ion-electron system (eV)
  ---------------------------------------------------
  alpha Z        PSCENC =      1138.74096316
  Ewald energy   TEWEN  =    129565.03039835
  -Hartree energ DENC   =   -168005.97555837
  -exchange      EXHF   =         0.00000000
  -V(xc)+E(xc)   XCENC  =      1222.03116290
  PAW double counting   =     34766.11369221   -34089.97070961
  entropy T*S    EENTRO =        -0.03803894
  eigenvalues    EBANDS =      2604.14888965
  atomic energy  EATOM  =     42512.69364877
  Solvation  Ediel_sol  =         0.00000000
  ---------------------------------------------------
  free energy    TOTEN  =      9712.77444812 eV

  energy without entropy =     9712.81248706  energy(sigma->0) =     9712.79346759


--------------------------------------------------------------------------------------------------------




--------------------------------------- Iteration      1(   2)  ---------------------------------------


     EDDAV:  cpu time      1.8636: real time      1.8668
       DOS:  cpu time      0.0006: real time      0.0006
    --------------------------------------------
      LOOP:  cpu time      1.8641: real time      1.8673

 eigenvalue-minimisations  :  1920
 total energy-change (2. order) :-0.7051518E+04  (-0.6206044E+04)
 number of electron     549.0000000 magnetization      49.2000000
 augmentation part      549.0000000 magnetization      49.2000000

 Free energy of the ion-electron system (eV)
  ---------------------------------------------------
  alpha Z        PSCENC =      1138.74096316
  Ewald energy   TEWEN  =    129565.03039835
  -Hartree energ DENC   =   -168005.97555837
  -exchange      EXHF   =         0.00000000
  -V(xc)+E(xc)   XCENC  =      1222.03116290
  PAW double counting   =     34766.11369221   -34089.97070961
  entropy T*S    EENTRO =        -0.09971761
  eigenvalues    EBANDS =     -4447.30697204
  atomic energy  EATOM  =     42512.69364877
  Solvation  Ediel_sol  =         0.00000000
  ---------------------------------------------------
  free energy    TOTEN  =      2661.25690775 eV

  energy without entropy =     2661.35662537  energy(sigma->0) =     2661.30676656


--------------------------------------------------------------------------------------------------------




--------------------------------------- Iteration      1(   3)  ---------------------------------------


     EDDAV:  cpu time      2.2429: real time      2.2455
       DOS:  cpu time      0.0006: real time      0.0006
    --------------------------------------------
      LOOP:  cpu time      2.2435: real time      2.2461

 eigenvalue-minimisations  :  2400
 total energy-change (2. order) :-0.2957278E+04  (-0.2849813E+04)
 number of electron     549.0000000 magnetization      49.2000000
 augmentation part      549.0000000 magnetization      49.2000000

 Free energy of the ion-electron system (eV)
  ---------------------------------------------------
  alpha Z        PSCENC =      1138.74096316
  Ewald energy   TEWEN  =    129565.03039835
  -Hartree energ DENC   =   -168005.97555837
  -exchange      EXHF   =         0.00000000
  -V(xc)+E(xc)   XCENC  =      1222.03116290
  PAW double counting   =     34766.11369221   -34089.97070961
  entropy T*S    EENTRO =        -0.06078690
  eigenvalues    EBANDS =     -7404.62363285
  atomic energy  EATOM  =     42512.69364877
  Solvation  Ediel_sol  =         0.00000000
  ---------------------------------------------------
  free energy    TOTEN  =      -296.02082234 eV

  energy without entropy =     -295.96003544  energy(sigma->0) =     -295.99042889


--------------------------------------------------------------------------------------------------------




--------------------------------------- Iteration      1(   4)  ---------------------------------------


     EDDAV:  cpu time      2.0723: real time      2.0749
       DOS:  cpu time      0.0006: real time      0.0006
    --------------------------------------------
      LOOP:  cpu time      2.0730: real time      2.0755

 eigenvalue-minimisations  :  2208
 total energy-change (2. order) :-0.3415931E+03  (-0.3358579E+03)
 number of electron     549.0000000 magnetization      49.2000000
 augmentation part      549.0000000 magnetization      49.2000000

 Free energy of the ion-electron system (eV)
  ---------------------------------------------------
  alpha Z        PSCENC =      1138.74096316
  Ewald energy   TEWEN  =    129565.03039835
  -Hartree energ DENC   =   -168005.97555837
  -exchange      EXHF   =         0.00000000
  -V(xc)+E(xc)   XCENC  =      1222.03116290
  PAW double counting   =     34766.11369221   -34089.97070961
  entropy T*S    EENTRO =        -0.03843507
  eigenvalues    EBANDS =     -7746.23912276
  atomic energy  EATOM  =     42512.69364877
  Solvation  Ediel_sol  =         0.00000000
  ---------------------------------------------------
  free energy    TOTEN  =      -637.61396042 eV

  energy without entropy =     -637.57552535  energy(sigma->0) =     -637.59474289


--------------------------------------------------------------------------------------------------------




--------------------------------------- Iteration      1(   5)  ---------------------------------------


     EDDAV:  cpu time      2.4970: real time      2.5004
       DOS:  cpu time      0.0006: real time      0.0006
    CHARGE:  cpu time      0.6347: real time      0.6379
    MIXING:  cpu time      0.0158: real time      0.0162
    --------------------------------------------
      LOOP:  cpu time      3.1482: real time      3.1552

 eigenvalue-minimisations  :  2736
 total energy-change (2. order) :-0.1818782E+02  (-0.1805511E+02)
 number of electron     548.9999997 magnetization      43.4446023
 augmentation part       18.5032784 magnetization      40.8676964

 Broyden mixing:
  rms(total) = 0.13681E+02    rms(broyden)= 0.13680E+02
  rms(prec ) = 0.14110E+02
  weight for this iteration     100.00

 Free energy of the ion-electron system (eV)
  ---------------------------------------------------
  alpha Z        PSCENC =      1138.74096316
  Ewald energy   TEWEN  =    129565.03039835
  -Hartree energ DENC   =   -168005.97555837
  -exchange      EXHF   =         0.00000000
  -V(xc)+E(xc)   XCENC  =      1222.03116290
  PAW double counting   =     34766.11369221   -34089.97070961
  entropy T*S    EENTRO =        -0.03717571
  eigenvalues    EBANDS =     -7764.42820438
  atomic energy  EATOM  =     42512.69364877
  Solvation  Ediel_sol  =         0.00000000
  ---------------------------------------------------
  free energy    TOTEN  =      -655.80178268 eV

  energy without entropy =     -655.76460697  energy(sigma->0) =     -655.78319482


--------------------------------------------------------------------------------------------------------




--------------------------------------- Iteration      1(   6)  ---------------------------------------


    POTLOK:  cpu time      0.0756: real time      0.0765
    SETDIJ:  cpu time      0.9969: real time      0.9975
     EDDAV:  cpu time      2.0317: real time      2.0330
       DOS:  cpu time      0.0007: real time      0.0007
    CHARGE:  cpu time      0.6196: real time      0.6204
    MIXING:  cpu time      0.0093: real time      0.0095
    --------------------------------------------
      LOOP:  cpu time      3.7336: real time      3.7376

 eigenvalue-minimisations  :  2160
 total energy-change (2. order) : 0.1413375E+03  (-0.1420944E+03)
 number of electron     549.0000000 magnetization      41.2042031
 augmentation part       39.3745309 magnetization      34.5442306

 Broyden mixing:
  rms(total) = 0.92797E+01    rms(broyden)= 0.92777E+01
  rms(prec ) = 0.10340E+02
  weight for this iteration     100.00

 eigenvalues of (default mixing * dielectric matrix)
  average eigenvalue GAMMA=   0.6539
  0.6539

 Free energy of the ion-electron system (eV)
  ---------------------------------------------------
  alpha Z        PSCENC =      1138.74096316
  Ewald energy   TEWEN  =    129565.03039835
  -Hartree energ DENC   =   -168924.21257292
  -exchange      EXHF   =         0.00000000
  -V(xc)+E(xc)   XCENC  =      1291.72240740
  PAW double counting   =     38011.61933336   -37339.48006320
  entropy T*S    EENTRO =        -0.24710942
  eigenvalues    EBANDS =     -6770.33124156
  atomic energy  EATOM  =     42512.69364877
  Solvation  Ediel_sol  =         0.00000000
  ---------------------------------------------------
  free energy    TOTEN  =      -514.46423606 eV

  energy without entropy =     -514.21712664  energy(sigma->0) =     -514.34068135


--------------------------------------------------------------------------------------------------------




--------------------------------------- Iteration      1(   7)  ---------------------------------------


    POTLOK:  cpu time      0.0777: real time      0.0790
    SETDIJ:  cpu time      1.0021: real time      1.0023
     EDDAV:  cpu time      2.3370: real time      2.3381
       DOS:  cpu time      0.0006: real time      0.0006
    CHARGE:  cpu time      0.5958: real time      0.5967
    MIXING:  cpu time      0.0021: real time      0.0021
    --------------------------------------------
      LOOP:  cpu time      4.0153: real time      4.0189

 eigenvalue-minimisations  :  2544
 total energy-change (2. order) :-0.2030914E+02  (-0.2094710E+03)
 number of electron     548.9999997 magnetization      38.4829671
 augmentation part       20.8018113 magnetization      32.9641933

 Broyden mixing:
  rms(total) = 0.85948E+01    rms(broyden)= 0.85941E+01
  rms(prec ) = 0.90933E+01
  weight for this iteration     100.00

 eigenvalues of (default mixing * dielectric matrix)
  average eigenvalue GAMMA=   0.6414
  0.9454  0.3374

 Free energy of the ion-electron system (eV)
  ---------------------------------------------------
  alpha Z        PSCENC =      1138.74096316
  Ewald energy   TEWEN  =    129565.03039835
  -Hartree energ DENC   =   -169047.57784862
  -exchange      EXHF   =         0.00000000
  -V(xc)+E(xc)   XCENC  =      1268.30582675
  PAW double counting   =     39461.77664128   -38826.74110790
  entropy T*S    EENTRO =        -0.06188787
  eigenvalues    EBANDS =     -6606.94000964
  atomic energy  EATOM  =     42512.69364877
  Solvation  Ediel_sol  =         0.00000000
  ---------------------------------------------------
  free energy    TOTEN  =      -534.77337573 eV

  energy without entropy =     -534.71148785  energy(sigma->0) =     -534.74243179


--------------------------------------------------------------------------------------------------------




--------------------------------------- Iteration      1(   8)  ---------------------------------------


    POTLOK:  cpu time      0.0743: real time      0.0815
    SETDIJ:  cpu time      1.0000: real time      1.0004
     EDDAV:  cpu time      2.1788: real time      2.1800
       DOS:  cpu time      0.0006: real time      0.0006
    CHARGE:  cpu time      0.6231: real time      0.6240
    MIXING:  cpu time      0.0025: real time      0.0025
    --------------------------------------------
      LOOP:  cpu time      3.8794: real time      3.8890

 eigenvalue-minimisations  :  2352
 total energy-change (2. order) :-0.3145247E+02  (-0.7196921E+02)
 number of electron     548.9999997 magnetization      33.2904237
 augmentation part       17.4701284 magnetization      29.9690628

 Broyden mixing:
  rms(total) = 0.61670E+01    rms(broyden)= 0.61665E+01
  rms(prec ) = 0.65349E+01
  weight for this iteration     100.00

 eigenvalues of (default mixing * dielectric matrix)
  average eigenvalue GAMMA=   0.8298
  1.6167  0.4364  0.4364

 Free energy of the ion-electron system (eV)
  ---------------------------------------------------
  alpha Z        PSCENC =      1138.74096316
  Ewald energy   TEWEN  =    129565.03039835
  -Hartree energ DENC   =   -169047.67151593
  -exchange      EXHF   =         0.00000000
  -V(xc)+E(xc)   XCENC  =      1266.94377101
  PAW double counting   =     40815.33087729   -40173.35263319
  entropy T*S    EENTRO =        -0.03283026
  eigenvalues    EBANDS =     -6643.90852415
  atomic energy  EATOM  =     42512.69364877
  Solvation  Ediel_sol  =         0.00000000
  ---------------------------------------------------
  free energy    TOTEN  =      -566.22584495 eV

  energy without entropy =     -566.19301469  energy(sigma->0) =     -566.20942982


--------------------------------------------------------------------------------------------------------




--------------------------------------- Iteration      1(   9)  ---------------------------------------


    POTLOK:  cpu time      0.0751: real time      0.0922
    SETDIJ:  cpu time      1.0008: real time      1.0009
     EDDAV:  cpu time      2.3521: real time      2.3537
       DOS:  cpu time      0.0007: real time      0.0007
    CHARGE:  cpu time      0.6045: real time      0.6054
    MIXING:  cpu time      0.0025: real time      0.0025
    --------------------------------------------
      LOOP:  cpu time      4.0356: real time      4.0555

 eigenvalue-minimisations  :  2544
 total energy-change (2. order) : 0.4432511E+02  (-0.1203169E+02)
 number of electron     548.9999997 magnetization      31.6184109
 augmentation part       18.5332781 magnetization      22.7205720

 Broyden mixing:
  rms(total) = 0.41463E+01    rms(broyden)= 0.41457E+01
  rms(prec ) = 0.49301E+01
  weight for this iteration     100.00

 eigenvalues of (default mixing * dielectric matrix)
  average eigenvalue GAMMA=   0.7648
  1.6893  0.5259  0.5259  0.3183

 Free energy of the ion-electron system (eV)
  ---------------------------------------------------
  alpha Z        PSCENC =      1138.74096316
  Ewald energy   TEWEN  =    129565.03039835
  -Hartree energ DENC   =   -169359.51977887
  -exchange      EXHF   =         0.00000000
  -V(xc)+E(xc)   XCENC  =      1281.80442312
  PAW double counting   =     42328.58315021   -41685.11343478
  entropy T*S    EENTRO =        -0.03361800
  eigenvalues    EBANDS =     -6304.08649010
  atomic energy  EATOM  =     42512.69364877
  Solvation  Ediel_sol  =         0.00000000
  ---------------------------------------------------
  free energy    TOTEN  =      -521.90073815 eV

  energy without entropy =     -521.86712014  energy(sigma->0) =     -521.88392915


--------------------------------------------------------------------------------------------------------




--------------------------------------- Iteration      1(  10)  ---------------------------------------


    POTLOK:  cpu time      0.0759: real time      0.1031
    SETDIJ:  cpu time      0.9964: real time      0.9966
     EDDAV:  cpu time      2.2247: real time      2.2257
       DOS:  cpu time      0.0005: real time      0.0005
    CHARGE:  cpu time      0.6099: real time      0.6110
    MIXING:  cpu time      0.0024: real time      0.0024
    --------------------------------------------
      LOOP:  cpu time      3.9099: real time      3.9394

 eigenvalue-minimisations  :  2400
 total energy-change (2. order) : 0.1745533E+02  (-0.1152991E+02)
 number of electron     548.9999997 magnetization      29.0896395
 augmentation part       16.3873909 magnetization      27.0700225

 Broyden mixing:
  rms(total) = 0.30633E+01    rms(broyden)= 0.30627E+01
  rms(prec ) = 0.32375E+01
  weight for this iteration     100.00

 eigenvalues of (default mixing * dielectric matrix)
  average eigenvalue GAMMA=   0.7755
  1.8095  0.6776  0.6776  0.3792  0.3336

 Free energy of the ion-electron system (eV)
  ---------------------------------------------------
  alpha Z        PSCENC =      1138.74096316
  Ewald energy   TEWEN  =    129565.03039835
  -Hartree energ DENC   =   -169446.83888679
  -exchange      EXHF   =         0.00000000
  -V(xc)+E(xc)   XCENC  =      1282.66213737
  PAW double counting   =     42470.99097097   -41818.04266950
  entropy T*S    EENTRO =        -0.03083677
  eigenvalues    EBANDS =     -6209.65113506
  atomic energy  EATOM  =     42512.69364877
  Solvation  Ediel_sol  =         0.00000000
  ---------------------------------------------------
  free energy    TOTEN  =      -504.44540950 eV

  energy without entropy =     -504.41457273  energy(sigma->0) =     -504.42999112


--------------------------------------------------------------------------------------------------------




--------------------------------------- Iteration      1(  11)  ---------------------------------------


    POTLOK:  cpu time      0.0756: real time      0.0873
    SETDIJ:  cpu time      1.0038: real time      1.0043
     EDDAV:  cpu time      2.1827: real time      2.1832
       DOS:  cpu time      0.0006: real time      0.0006
    CHARGE:  cpu time      0.6045: real time      0.6050
    MIXING:  cpu time      0.0024: real time      0.0024
    --------------------------------------------
      LOOP:  cpu time      3.8697: real time      3.8830

 eigenvalue-minimisations  :  2352
 total energy-change (2. order) : 0.1233747E+02  (-0.3054701E+01)
 number of electron     548.9999997 magnetization      26.8088120
 augmentation part       15.7454496 magnetization      22.5320520

 Broyden mixing:
  rms(total) = 0.18486E+01    rms(broyden)= 0.18484E+01
  rms(prec ) = 0.19560E+01
  weight for this iteration     100.00

 eigenvalues of (default mixing * dielectric matrix)
  average eigenvalue GAMMA=   0.7580
  1.8416  0.8626  0.5749  0.4459  0.4459  0.3774

 Free energy of the ion-electron system (eV)
  ---------------------------------------------------
  alpha Z        PSCENC =      1138.74096316
  Ewald energy   TEWEN  =    129565.03039835
  -Hartree energ DENC   =   -169497.83867111
  -exchange      EXHF   =         0.00000000
  -V(xc)+E(xc)   XCENC  =      1286.09041767
  PAW double counting   =     42621.35040978   -41958.63914940
  entropy T*S    EENTRO =        -0.00052362
  eigenvalues    EBANDS =     -6159.53543357
  atomic energy  EATOM  =     42512.69364877
  Solvation  Ediel_sol  =         0.00000000
  ---------------------------------------------------
  free energy    TOTEN  =      -492.10793998 eV

  energy without entropy =     -492.10741636  energy(sigma->0) =     -492.10767817


--------------------------------------------------------------------------------------------------------




--------------------------------------- Iteration      1(  12)  ---------------------------------------


    POTLOK:  cpu time      0.0843: real time      0.1288
    SETDIJ:  cpu time      1.0073: real time      1.0077
     EDDAV:  cpu time      2.2222: real time      2.2238
       DOS:  cpu time      0.0006: real time      0.0006
    CHARGE:  cpu time      0.6116: real time      0.6126
    MIXING:  cpu time      0.0046: real time      0.0046
    --------------------------------------------
      LOOP:  cpu time      3.9306: real time      3.9781

 eigenvalue-minimisations  :  2400
 total energy-change (2. order) : 0.2079035E+01  (-0.2401230E+01)
 number of electron     548.9999997 magnetization      25.7577568
 augmentation part       15.8780126 magnetization      22.7267190

 Broyden mixing:
  rms(total) = 0.16043E+01    rms(broyden)= 0.16042E+01
  rms(prec ) = 0.16873E+01
  weight for this iteration     100.00

 eigenvalues of (default mixing * dielectric matrix)
  average eigenvalue GAMMA=   0.7237
  1.7721  0.8018  0.5974  0.5974  0.6109  0.3606  0.3260

 Free energy of the ion-electron system (eV)
  ---------------------------------------------------
  alpha Z        PSCENC =      1138.74096316
  Ewald energy   TEWEN  =    129565.03039835
  -Hartree energ DENC   =   -169522.89670115
  -exchange      EXHF   =         0.00000000
  -V(xc)+E(xc)   XCENC  =      1285.78753599
  PAW double counting   =     42636.24992788   -41962.59115693
  entropy T*S    EENTRO =        -0.03889019
  eigenvalues    EBANDS =     -6143.00463107
  atomic energy  EATOM  =     42512.69364877
  Solvation  Ediel_sol  =         0.00000000
  ---------------------------------------------------
  free energy    TOTEN  =      -490.02890518 eV

  energy without entropy =     -489.99001500  energy(sigma->0) =     -490.00946009


--------------------------------------------------------------------------------------------------------




--------------------------------------- Iteration      1(  13)  ---------------------------------------


    POTLOK:  cpu time      0.0791: real time      0.1526
    SETDIJ:  cpu time      1.0028: real time      1.0030
     EDDAV:  cpu time      2.5316: real time      2.5328
       DOS:  cpu time      0.0006: real time      0.0006
    CHARGE:  cpu time      0.6129: real time      0.6140
    MIXING:  cpu time      0.0026: real time      0.0026
    --------------------------------------------
      LOOP:  cpu time      4.2296: real time      4.3056

 eigenvalue-minimisations  :  2784
 total energy-change (2. order) : 0.3820814E+00  (-0.1451063E+01)
 number of electron     548.9999997 magnetization      25.1870363
 augmentation part       15.5693388 magnetization      21.2938971

 Broyden mixing:
  rms(total) = 0.13253E+01    rms(broyden)= 0.13250E+01
  rms(prec ) = 0.13858E+01
  weight for this iteration     100.00

 eigenvalues of (default mixing * dielectric matrix)
  average eigenvalue GAMMA=   0.6764
  1.7698  0.7297  0.7297  0.6254  0.6254  0.3637  0.2956  0.2721

 Free energy of the ion-electron system (eV)
  ---------------------------------------------------
  alpha Z        PSCENC =      1138.74096316
  Ewald energy   TEWEN  =    129565.03039835
  -Hartree energ DENC   =   -169529.56847981
  -exchange      EXHF   =         0.00000000
  -V(xc)+E(xc)   XCENC  =      1285.51113431
  PAW double counting   =     42656.44500648   -41979.20870498
  entropy T*S    EENTRO =        -0.04314060
  eigenvalues    EBANDS =     -6139.24764949
  atomic energy  EATOM  =     42512.69364877
  Solvation  Ediel_sol  =         0.00000000
  ---------------------------------------------------
  free energy    TOTEN  =      -489.64682382 eV

  energy without entropy =     -489.60368322  energy(sigma->0) =     -489.62525352


--------------------------------------------------------------------------------------------------------




--------------------------------------- Iteration      1(  14)  ---------------------------------------


    POTLOK:  cpu time      0.0748: real time      0.0831
    SETDIJ:  cpu time      1.0061: real time      1.0065
     EDDAV:  cpu time      2.4639: real time      2.4650
       DOS:  cpu time      0.0006: real time      0.0006
    CHARGE:  cpu time      0.6034: real time      0.6035
    MIXING:  cpu time      0.0025: real time      0.0025
    --------------------------------------------
      LOOP:  cpu time      4.1513: real time      4.1612

 eigenvalue-minimisations  :  2688
 total energy-change (2. order) :-0.3072113E+00  (-0.4882048E+00)
 number of electron     548.9999997 magnetization      23.6930426
 augmentation part       15.1802746 magnetization      19.7616664

 Broyden mixing:
  rms(total) = 0.10787E+01    rms(broyden)= 0.10786E+01
  rms(prec ) = 0.11057E+01
  weight for this iteration     100.00

 eigenvalues of (default mixing * dielectric matrix)
  average eigenvalue GAMMA=   0.6765
  1.8001  0.9249  0.9249  0.5892  0.5892  0.4255  0.3177  0.3177  0.1991

 Free energy of the ion-electron system (eV)
  ---------------------------------------------------
  alpha Z        PSCENC =      1138.74096316
  Ewald energy   TEWEN  =    129565.03039835
  -Hartree energ DENC   =   -169533.33710733
  -exchange      EXHF   =         0.00000000
  -V(xc)+E(xc)   XCENC  =      1284.67713586
  PAW double counting   =     42696.45988148   -42017.31696204
  entropy T*S    EENTRO =        -0.00442682
  eigenvalues    EBANDS =     -6136.89756658
  atomic energy  EATOM  =     42512.69364877
  Solvation  Ediel_sol  =         0.00000000
  ---------------------------------------------------
  free energy    TOTEN  =      -489.95403516 eV

  energy without entropy =     -489.94960834  energy(sigma->0) =     -489.95182175


--------------------------------------------------------------------------------------------------------




--------------------------------------- Iteration      1(  15)  ---------------------------------------


    POTLOK:  cpu time      0.0742: real time      0.0868
    SETDIJ:  cpu time      1.0012: real time      1.0019
[...]

  energy without entropy =     -516.71236060  energy(sigma->0) =     -516.71236060


--------------------------------------------------------------------------------------------------------




--------------------------------------- Iteration     10(   7)  ---------------------------------------


    POTLOK:  cpu time      0.0770: real time      0.1516
    SETDIJ:  cpu time      1.0052: real time      1.0064
     EDDAV:  cpu time      2.5246: real time      2.5256
       DOS:  cpu time      0.0004: real time      0.0004
    CHARGE:  cpu time      0.6201: real time      0.6210
    MIXING:  cpu time      0.0047: real time      0.0047
    --------------------------------------------
      LOOP:  cpu time      4.2319: real time      4.3096

 eigenvalue-minimisations  :  2784
 total energy-change (2. order) : 0.2916068E-03  (-0.5983847E-03)
 number of electron     549.0000000 magnetization       5.0000000
 augmentation part       15.7016580 magnetization       2.4009391

 Broyden mixing:
  rms(total) = 0.21512E-01    rms(broyden)= 0.21510E-01
  rms(prec ) = 0.22158E-01
  weight for this iteration     100.00

 eigenvalues of (default mixing * dielectric matrix)
  average eigenvalue GAMMA=   1.0035
  2.6061  0.8848  0.8848  0.6750  0.5302  0.4402

 Free energy of the ion-electron system (eV)
  ---------------------------------------------------
  alpha Z        PSCENC =      1138.74096316
  Ewald energy   TEWEN  =    126735.30062872
  -Hartree energ DENC   =   -166805.59857087
  -exchange      EXHF   =         0.00000000
  -V(xc)+E(xc)   XCENC  =      1266.49494003
  PAW double counting   =     43108.97524617   -42406.31129416
  entropy T*S    EENTRO =        -0.00000000
  eigenvalues    EBANDS =     -6067.00763080
  atomic energy  EATOM  =     42512.69364877
  Solvation  Ediel_sol  =         0.00000000
  ---------------------------------------------------
  free energy    TOTEN  =      -516.71206899 eV

  energy without entropy =     -516.71206899  energy(sigma->0) =     -516.71206899


--------------------------------------------------------------------------------------------------------




--------------------------------------- Iteration     10(   8)  ---------------------------------------


    POTLOK:  cpu time      0.0751: real time      0.0911
    SETDIJ:  cpu time      1.0054: real time      1.0058
     EDDAV:  cpu time      2.3861: real time      2.3871
       DOS:  cpu time      0.0004: real time      0.0004
    CHARGE:  cpu time      0.6155: real time      0.6165
    MIXING:  cpu time      0.0026: real time      0.0026
    --------------------------------------------
      LOOP:  cpu time      4.0852: real time      4.1036

 eigenvalue-minimisations  :  2592
 total energy-change (2. order) :-0.1127696E-03  (-0.1212386E-03)
 number of electron     549.0000000 magnetization       5.0000000
 augmentation part       15.7083970 magnetization       2.4016623

 Broyden mixing:
  rms(total) = 0.15778E-01    rms(broyden)= 0.15778E-01
  rms(prec ) = 0.16175E-01
  weight for this iteration     100.00

 eigenvalues of (default mixing * dielectric matrix)
  average eigenvalue GAMMA=   1.0285
  2.6455  1.1512  1.1512  0.7373  0.5507  0.5507  0.4132

 Free energy of the ion-electron system (eV)
  ---------------------------------------------------
  alpha Z        PSCENC =      1138.74096316
  Ewald energy   TEWEN  =    126735.30062872
  -Hartree energ DENC   =   -166805.45963190
  -exchange      EXHF   =         0.00000000
  -V(xc)+E(xc)   XCENC  =      1266.49646950
  PAW double counting   =     43110.97747203   -42408.30570476
  entropy T*S    EENTRO =        -0.00000000
  eigenvalues    EBANDS =     -6067.15602728
  atomic energy  EATOM  =     42512.69364877
  Solvation  Ediel_sol  =         0.00000000
  ---------------------------------------------------
  free energy    TOTEN  =      -516.71218176 eV

  energy without entropy =     -516.71218176  energy(sigma->0) =     -516.71218176


--------------------------------------------------------------------------------------------------------




--------------------------------------- Iteration     10(   9)  ---------------------------------------


    POTLOK:  cpu time      0.0739: real time      0.0749
    SETDIJ:  cpu time      1.0011: real time      1.0013
     EDDAV:  cpu time      2.2711: real time      2.2725
       DOS:  cpu time      0.0005: real time      0.0005
    CHARGE:  cpu time      0.5994: real time      0.6004
    MIXING:  cpu time      0.0031: real time      0.0031
    --------------------------------------------
      LOOP:  cpu time      3.9491: real time      3.9527

 eigenvalue-minimisations  :  2448
 total energy-change (2. order) :-0.2137821E-03  (-0.5173856E-04)
 number of electron     549.0000000 magnetization       5.0000000
 augmentation part       15.7089059 magnetization       2.4015631

 Broyden mixing:
  rms(total) = 0.88147E-02    rms(broyden)= 0.88141E-02
  rms(prec ) = 0.90822E-02
  weight for this iteration     100.00

 eigenvalues of (default mixing * dielectric matrix)
  average eigenvalue GAMMA=   1.0551
  2.7262  1.4903  1.2508  0.7579  0.6432  0.6432  0.4295  0.4992

 Free energy of the ion-electron system (eV)
  ---------------------------------------------------
  alpha Z        PSCENC =      1138.74096316
  Ewald energy   TEWEN  =    126735.30062872
  -Hartree energ DENC   =   -166805.44353994
  -exchange      EXHF   =         0.00000000
  -V(xc)+E(xc)   XCENC  =      1266.49267236
  PAW double counting   =     43113.24588503   -42410.57529613
  entropy T*S    EENTRO =        -0.00000000
  eigenvalues    EBANDS =     -6067.16735750
  atomic energy  EATOM  =     42512.69364877
  Solvation  Ediel_sol  =         0.00000000
  ---------------------------------------------------
  free energy    TOTEN  =      -516.71239554 eV

  energy without entropy =     -516.71239554  energy(sigma->0) =     -516.71239554


--------------------------------------------------------------------------------------------------------




--------------------------------------- Iteration     10(  10)  ---------------------------------------


    POTLOK:  cpu time      0.0750: real time      0.0762
    SETDIJ:  cpu time      0.9949: real time      0.9951
     EDDAV:  cpu time      2.2299: real time      2.2308
       DOS:  cpu time      0.0004: real time      0.0004
    CHARGE:  cpu time      0.6033: real time      0.6042
    MIXING:  cpu time      0.0026: real time      0.0026
    --------------------------------------------
      LOOP:  cpu time      3.9061: real time      3.9093

 eigenvalue-minimisations  :  2400
 total energy-change (2. order) :-0.2363396E-03  (-0.3476000E-04)
 number of electron     549.0000000 magnetization       5.0000000
 augmentation part       15.7086847 magnetization       2.4016571

 Broyden mixing:
  rms(total) = 0.43269E-02    rms(broyden)= 0.43259E-02
  rms(prec ) = 0.44966E-02
  weight for this iteration     100.00

 eigenvalues of (default mixing * dielectric matrix)
  average eigenvalue GAMMA=   1.0635
  2.6265  2.0993  1.0199  1.0199  0.6509  0.6509  0.6379  0.4095  0.4564

 Free energy of the ion-electron system (eV)
  ---------------------------------------------------
  alpha Z        PSCENC =      1138.74096316
  Ewald energy   TEWEN  =    126735.30062872
  -Hartree energ DENC   =   -166805.50147198
  -exchange      EXHF   =         0.00000000
  -V(xc)+E(xc)   XCENC  =      1266.48835398
  PAW double counting   =     43115.13207513   -42412.45993991
  entropy T*S    EENTRO =        -0.00000000
  eigenvalues    EBANDS =     -6067.10688976
  atomic energy  EATOM  =     42512.69364877
  Solvation  Ediel_sol  =         0.00000000
  ---------------------------------------------------
  free energy    TOTEN  =      -516.71263188 eV

  energy without entropy =     -516.71263188  energy(sigma->0) =     -516.71263188


--------------------------------------------------------------------------------------------------------




--------------------------------------- Iteration     10(  11)  ---------------------------------------


    POTLOK:  cpu time      0.0786: real time      0.0986
    SETDIJ:  cpu time      1.0012: real time      1.0016
     EDDAV:  cpu time      2.4083: real time      2.4089
       DOS:  cpu time      0.0004: real time      0.0004
    CHARGE:  cpu time      0.6059: real time      0.6069
    MIXING:  cpu time      0.0027: real time      0.0027
    --------------------------------------------
      LOOP:  cpu time      4.0971: real time      4.1191

 eigenvalue-minimisations  :  2640
 total energy-change (2. order) :-0.1647669E-03  (-0.1041118E-04)
 number of electron     549.0000000 magnetization       5.0000000
 augmentation part       15.7081490 magnetization       2.4015738

 Broyden mixing:
  rms(total) = 0.24323E-02    rms(broyden)= 0.24317E-02
  rms(prec ) = 0.25058E-02
  weight for this iteration     100.00

 eigenvalues of (default mixing * dielectric matrix)
  average eigenvalue GAMMA=   1.0388
  2.6657  2.1398  1.1176  1.1176  0.6992  0.6992  0.5557  0.5557  0.4189  0.4189

 Free energy of the ion-electron system (eV)
  ---------------------------------------------------
  alpha Z        PSCENC =      1138.74096316
  Ewald energy   TEWEN  =    126735.30062872
  -Hartree energ DENC   =   -166805.61513945
  -exchange      EXHF   =         0.00000000
  -V(xc)+E(xc)   XCENC  =      1266.48775595
  PAW double counting   =     43115.92448568   -42413.25273431
  entropy T*S    EENTRO =        -0.00000000
  eigenvalues    EBANDS =     -6066.99240518
  atomic energy  EATOM  =     42512.69364877
  Solvation  Ediel_sol  =         0.00000000
  ---------------------------------------------------
  free energy    TOTEN  =      -516.71279665 eV

  energy without entropy =     -516.71279665  energy(sigma->0) =     -516.71279665


--------------------------------------------------------------------------------------------------------




--------------------------------------- Iteration     10(  12)  ---------------------------------------


    POTLOK:  cpu time      0.0759: real time      0.0968
    SETDIJ:  cpu time      0.9962: real time      0.9963
     EDDAV:  cpu time      2.3710: real time      2.3722
       DOS:  cpu time      0.0005: real time      0.0005
    CHARGE:  cpu time      0.6220: real time      0.6230
    MIXING:  cpu time      0.0040: real time      0.0040
    --------------------------------------------
      LOOP:  cpu time      4.0695: real time      4.0928

 eigenvalue-minimisations  :  2592
 total energy-change (2. order) :-0.9492828E-04  (-0.2035016E-05)
 number of electron     549.0000000 magnetization       5.0000000
 augmentation part       15.7080455 magnetization       2.4016044

 Broyden mixing:
  rms(total) = 0.15925E-02    rms(broyden)= 0.15921E-02
  rms(prec ) = 0.16489E-02
  weight for this iteration     100.00

 eigenvalues of (default mixing * dielectric matrix)
  average eigenvalue GAMMA=   1.0440
  2.6979  2.1915  1.2558  1.2558  0.7667  0.7667  0.5832  0.5832  0.5232  0.4106
  0.4489

 Free energy of the ion-electron system (eV)
  ---------------------------------------------------
  alpha Z        PSCENC =      1138.74096316
  Ewald energy   TEWEN  =    126735.30062872
  -Hartree energ DENC   =   -166805.66052283
  -exchange      EXHF   =         0.00000000
  -V(xc)+E(xc)   XCENC  =      1266.48739818
  PAW double counting   =     43116.04541542   -42413.37429314
  entropy T*S    EENTRO =        -0.00000000
  eigenvalues    EBANDS =     -6066.94612986
  atomic energy  EATOM  =     42512.69364877
  Solvation  Ediel_sol  =         0.00000000
  ---------------------------------------------------
  free energy    TOTEN  =      -516.71289158 eV

  energy without entropy =     -516.71289158  energy(sigma->0) =     -516.71289158


--------------------------------------------------------------------------------------------------------




--------------------------------------- Iteration     10(  13)  ---------------------------------------


    POTLOK:  cpu time      0.0745: real time      0.0888
    SETDIJ:  cpu time      1.0010: real time      1.0011
     EDDAV:  cpu time      2.2284: real time      2.2294
       DOS:  cpu time      0.0004: real time      0.0004
    CHARGE:  cpu time      0.6025: real time      0.6035
    MIXING:  cpu time      0.0032: real time      0.0032
    --------------------------------------------
      LOOP:  cpu time      3.9100: real time      3.9264

 eigenvalue-minimisations  :  2400
 total energy-change (2. order) :-0.1140938E-03  (-0.1142808E-05)
 number of electron     549.0000000 magnetization       5.0000000
 augmentation part       15.7082127 magnetization       2.4015785

 Broyden mixing:
  rms(total) = 0.10784E-02    rms(broyden)= 0.10779E-02
  rms(prec ) = 0.11269E-02
  weight for this iteration     100.00

 eigenvalues of (default mixing * dielectric matrix)
  average eigenvalue GAMMA=   1.0590
  2.8500  2.1402  1.4000  1.4000  0.8731  0.8731  0.6128  0.6128  0.6067  0.4951
  0.4219  0.4219

 Free energy of the ion-electron system (eV)
  ---------------------------------------------------
  alpha Z        PSCENC =      1138.74096316
  Ewald energy   TEWEN  =    126735.30062872
  -Hartree energ DENC   =   -166805.72324815
  -exchange      EXHF   =         0.00000000
  -V(xc)+E(xc)   XCENC  =      1266.48788847
  PAW double counting   =     43116.16821773   -42413.49763680
  entropy T*S    EENTRO =        -0.00000000
  eigenvalues    EBANDS =     -6066.88346757
  atomic energy  EATOM  =     42512.69364877
  Solvation  Ediel_sol  =         0.00000000
  ---------------------------------------------------
  free energy    TOTEN  =      -516.71300567 eV

  energy without entropy =     -516.71300567  energy(sigma->0) =     -516.71300567


--------------------------------------------------------------------------------------------------------




--------------------------------------- Iteration     10(  14)  ---------------------------------------


    POTLOK:  cpu time      0.0743: real time      0.0743
    SETDIJ:  cpu time      1.0085: real time      1.0088
     EDDAV:  cpu time      1.9446: real time      1.9455
       DOS:  cpu time      0.0005: real time      0.0005
    CHARGE:  cpu time      0.6139: real time      0.6140
    MIXING:  cpu time      0.0029: real time      0.0029
    --------------------------------------------
      LOOP:  cpu time      3.6448: real time      3.6460

 eigenvalue-minimisations  :  2016
 total energy-change (2. order) :-0.1253414E-03  (-0.7482546E-06)
 number of electron     549.0000000 magnetization       5.0000000
 augmentation part       15.7080296 magnetization       2.4015743

 Broyden mixing:
  rms(total) = 0.61320E-03    rms(broyden)= 0.61219E-03
  rms(prec ) = 0.66538E-03
  weight for this iteration     100.00

 eigenvalues of (default mixing * dielectric matrix)
  average eigenvalue GAMMA=   1.0795
  3.0672  2.3847  1.4406  1.4406  0.9947  0.7782  0.7074  0.7074  0.5919  0.5919
  0.4134  0.4750  0.4405

 Free energy of the ion-electron system (eV)
  ---------------------------------------------------
  alpha Z        PSCENC =      1138.74096316
  Ewald energy   TEWEN  =    126735.30062872
  -Hartree energ DENC   =   -166805.79132242
  -exchange      EXHF   =         0.00000000
  -V(xc)+E(xc)   XCENC  =      1266.48783927
  PAW double counting   =     43116.25387122   -42413.58454542
  entropy T*S    EENTRO =        -0.00000000
  eigenvalues    EBANDS =     -6066.81421432
  atomic energy  EATOM  =     42512.69364877
  Solvation  Ediel_sol  =         0.00000000
  ---------------------------------------------------
  free energy    TOTEN  =      -516.71313101 eV

  energy without entropy =     -516.71313101  energy(sigma->0) =     -516.71313101


--------------------------------------------------------------------------------------------------------




--------------------------------------- Iteration     10(  15)  ---------------------------------------


    POTLOK:  cpu time      0.0760: real time      0.0760
    SETDIJ:  cpu time      1.0088: real time      1.0098
     EDDAV:  cpu time      1.6549: real time      1.6558
       DOS:  cpu time      0.0004: real time      0.0004
    CHARGE:  cpu time      0.6122: real time      0.6131
    MIXING:  cpu time      0.0028: real time      0.0028
    --------------------------------------------
      LOOP:  cpu time      3.3551: real time      3.3580

 eigenvalue-minimisations  :  1632
 total energy-change (2. order) :-0.9892753E-04  (-0.5568122E-06)
 number of electron     549.0000000 magnetization       5.0000000
 augmentation part       15.7079809 magnetization       2.4015763

 Broyden mixing:
  rms(total) = 0.38501E-03    rms(broyden)= 0.38342E-03
  rms(prec ) = 0.42589E-03
  weight for this iteration     100.00

 eigenvalues of (default mixing * dielectric matrix)
  average eigenvalue GAMMA=   1.0787
  3.1535  2.4905  1.5501  1.5501  1.0373  0.7415  0.7415  0.7927  0.5961  0.5961
  0.5349  0.4817  0.4181  0.4181

 Free energy of the ion-electron system (eV)
  ---------------------------------------------------
  alpha Z        PSCENC =      1138.74096316
  Ewald energy   TEWEN  =    126735.30062872
  -Hartree energ DENC   =   -166805.84877427
  -exchange      EXHF   =         0.00000000
  -V(xc)+E(xc)   XCENC  =      1266.48773957
  PAW double counting   =     43116.31569147   -42413.64690109
  entropy T*S    EENTRO =        -0.00000000
  eigenvalues    EBANDS =     -6066.75622627
  atomic energy  EATOM  =     42512.69364877
  Solvation  Ediel_sol  =         0.00000000
  ---------------------------------------------------
  free energy    TOTEN  =      -516.71322994 eV

  energy without entropy =     -516.71322994  energy(sigma->0) =     -516.71322994


--------------------------------------------------------------------------------------------------------




--------------------------------------- Iteration     10(  16)  ---------------------------------------


    POTLOK:  cpu time      0.0751: real time      0.0751
    SETDIJ:  cpu time      1.0074: real time      1.0076
     EDDAV:  cpu time      1.5480: real time      1.5482
       DOS:  cpu time      0.0004: real time      0.0004
    CHARGE:  cpu time      0.6028: real time      0.6055
    MIXING:  cpu time      0.0041: real time      0.0041
    --------------------------------------------
      LOOP:  cpu time      3.2377: real time      3.2409

 eigenvalue-minimisations  :  1488
 total energy-change (2. order) :-0.6121051E-04  (-0.3661763E-06)
 number of electron     549.0000000 magnetization       5.0000000
 augmentation part       15.7078801 magnetization       2.4015750

 Broyden mixing:
  rms(total) = 0.29470E-03    rms(broyden)= 0.29274E-03
  rms(prec ) = 0.32850E-03
  weight for this iteration     100.00

 eigenvalues of (default mixing * dielectric matrix)
  average eigenvalue GAMMA=   1.0598
  3.2149  2.5195  1.5304  1.5304  1.2186  0.7707  0.7707  0.7846  0.5778  0.5778
  0.5442  0.5442  0.4147  0.4337  0.4650

 Free energy of the ion-electron system (eV)
  ---------------------------------------------------
  alpha Z        PSCENC =      1138.74096316
  Ewald energy   TEWEN  =    126735.30062872
  -Hartree energ DENC   =   -166805.88258098
  -exchange      EXHF   =         0.00000000
  -V(xc)+E(xc)   XCENC  =      1266.48757397
  PAW double counting   =     43116.31248325   -42413.64401291
  entropy T*S    EENTRO =        -0.00000000
  eigenvalues    EBANDS =     -6066.72199512
  atomic energy  EATOM  =     42512.69364877
  Solvation  Ediel_sol  =         0.00000000
  ---------------------------------------------------
  free energy    TOTEN  =      -516.71329115 eV

  energy without entropy =     -516.71329115  energy(sigma->0) =     -516.71329115


--------------------------------------------------------------------------------------------------------




--------------------------------------- Iteration     10(  17)  ---------------------------------------


