<?xml version="1.0" encoding="ISO-8859-1"?>
<modeling>
 <generator>
  <i name="program" type="string">vasp </i>
  <i name="version" type="string">6.4.3  </i>
  <i name="subversion" type="string">19Mar24 (build Mar 01 2025 18:03:59) gamma-only                       parallel </i>
  <i name="platform" type="string">Shaheen </i>
  <i name="date" type="string">2025 04 24 </i>
  <i name="time" type="string">18:36:32 </i>
 </generator>
 <incar>
  <i type="int" name="ISTART">     1</i>
  <i type="string" name="PREC">Accurate   (Precision level: Normal or Accurate, set Accurate when perform structure lattice relaxation calculation)</i>
  <i type="logical" name="ADDGRID"> T  </i>
  <i type="int" name="ISPIN">     2</i>
  <i type="int" name="NELM">    90</i>
  <i type="int" name="NELMIN">     6</i>
  <i type="int" name="IBRION">     2</i>
  <i name="EDIFF">      0.00000100</i>
  <i name="EDIFFG">     -0.02000000</i>
  <i type="int" name="NSW">   300</i>
  <i type="int" name="ISIF">     2</i>
  <i name="ENCUT">    520.00000000</i>
  <v name="MAGMOM">      1.00000000      1.00000000      1.00000000      1.00000000      1.00000000      1.00000000      1.00000000      1.00000000      1.00000000      1.00000000      1.00000000      1.00000000      1.00000000      1.00000000      1.00000000      1.00000000      1.00000000      1.00000000      0.60000000      0.60000000
      0.60000000      0.60000000      0.60000000      0.60000000      0.60000000      0.60000000      0.60000000      0.60000000      0.60000000      0.60000000      0.60000000      0.60000000      0.60000000      0.60000000      0.60000000      0.60000000      0.60000000      0.60000000      0.60000000      0.60000000
      0.60000000      0.60000000      0.60000000      0.60000000      0.60000000      0.60000000      0.60000000      0.60000000      0.60000000      0.60000000      0.60000000      0.60000000      0.60000000      0.60000000      0.60000000      0.60000000      0.60000000      0.60000000      0.60000000      0.60000000
      0.60000000      0.60000000      0.60000000      0.60000000      0.60000000      0.60000000      0.60000000      0.60000000      0.60000000      0.60000000</v>
  <i type="logical" name="LREAL"> F  </i>
  <i type="int" name="ISMEAR">     0</i>
  <i name="SIGMA">      0.05000000</i>
  <i type="int" name="LMAXMIX">     6</i>
  <i type="logical" name="LWAVE"> F  </i>
  <i type="logical" name="LCHARG"> F  </i>
  <i type="logical" name="LASPH"> T  </i>
  <i type="logical" name="LDAU"> T  </i>
  <i type="int" name="LDAUTYPE">     2</i>
  <v type="int" name="LDAUL">     3    -1     2</v>
  <v name="LDAUU">      5.00000000      0.00000000      2.00000000</v>
  <v name="LDAUJ">      0.00000000      0.00000000      0.00000000</v>
 </incar>
 <primitive_cell>
  <structure name="primitive_cell" >
   <crystal>
    <varray name="basis" >
     <v>      11.59819984       0.00000000       0.00000000 </v>
     <v>      -5.79909992      10.04433570       0.00000000 </v>
     <v>       0.00000000       0.00000000      21.04820061 </v>
    </varray>
    <i name="volume">   2452.03565684 </i>
    <varray name="rec_basis" >
     <v>       0.08622028       0.04977930       0.00000000 </v>
     <v>       0.00000000       0.09955860       0.00000000 </v>
     <v>       0.00000000       0.00000000       0.04751000 </v>
    </varray>
   </crystal>
   <varray name="positions" >
    <v>       0.00000000       0.00000000       0.45993000 </v>
    <v>       0.22222000       0.11111000       0.30996000 </v>
    <v>       0.33333000       0.00000000       0.45993000 </v>
    <v>       0.55556000       0.11111000       0.30996000 </v>
    <v>       0.66667000       0.00000000       0.45993000 </v>
    <v>       0.88889000       0.11111000       0.30996000 </v>
    <v>       1.00000000       0.33333000       0.45993000 </v>
    <v>       0.22222000       0.44444000       0.30996000 </v>
    <v>       0.33333000       0.33333000       0.45993000 </v>
    <v>       0.55556000       0.44444000       0.30996000 </v>
    <v>       0.66667000       0.33333000       0.45993000 </v>
    <v>       0.88889000       0.44444000       0.30996000 </v>
    <v>       1.00000000       0.66667000       0.45993000 </v>
    <v>       0.22222000       0.77778000       0.30996000 </v>
    <v>       0.33333000       0.66667000       0.45993000 </v>
    <v>       0.55556000       0.77778000       0.30996000 </v>
    <v>       0.66667000       0.66667000       0.45993000 </v>
    <v>       0.88889000       0.77778000       0.30996000 </v>
    <v>       0.00000000       0.00000000       0.57241000 </v>
    <v>       0.11111000       0.22222000       0.27247000 </v>
    <v>       0.22222000       0.11111000       0.42244000 </v>
    <v>       0.11111000       0.22222000       0.49742000 </v>
    <v>       0.00000000       0.00000000       0.34745000 </v>
    <v>       0.33333000       0.00000000       0.57241000 </v>
    <v>       0.44444000       0.22222000       0.27247000 </v>
    <v>       0.55556000       0.11111000       0.42244000 </v>
    <v>       0.44444000       0.22222000       0.49742000 </v>
    <v>       0.33333000       0.00000000       0.34745000 </v>
    <v>       0.66667000       0.00000000       0.57241000 </v>
    <v>       0.77778000       0.22222000       0.27247000 </v>
    <v>       0.88889000       0.11111000       0.42244000 </v>
    <v>       0.77778000       0.22222000       0.49742000 </v>
    <v>       0.66667000       0.00000000       0.34745000 </v>
    <v>       1.00000000       0.33333000       0.57241000 </v>
    <v>       0.11111000       0.55556000       0.27247000 </v>
    <v>       0.22222000       0.44444000       0.42244000 </v>
    <v>       0.11111000       0.55556000       0.49742000 </v>
    <v>       1.00000000       0.33333000       0.34745000 </v>
    <v>       0.33333000       0.33333000       0.57241000 </v>
    <v>       0.44444000       0.55556000       0.27247000 </v>
    <v>       0.55556000       0.44444000       0.42244000 </v>
    <v>       0.44444000       0.55556000       0.49742000 </v>
    <v>       0.33333000       0.33333000       0.34745000 </v>
    <v>       0.66667000       0.33333000       0.57241000 </v>
    <v>       0.77778000       0.55556000       0.27247000 </v>
    <v>       0.88889000       0.44444000       0.42244000 </v>
    <v>       0.77778000       0.55556000       0.49742000 </v>
    <v>       0.66667000       0.33333000       0.34745000 </v>
    <v>       1.00000000       0.66667000       0.57241000 </v>
    <v>       0.11111000       0.88889000       0.27247000 </v>
    <v>       0.22222000       0.77778000       0.42244000 </v>
    <v>       0.11111000       0.88889000       0.49742000 </v>
    <v>       1.00000000       0.66667000       0.34745000 </v>
    <v>       0.33333000       0.66667000       0.57241000 </v>
    <v>       0.44444000       0.88889000       0.27247000 </v>
    <v>       0.55556000       0.77778000       0.42244000 </v>
    <v>       0.44444000       0.88889000       0.49742000 </v>
    <v>       0.33333000       0.66667000       0.34745000 </v>
    <v>       0.66667000       0.66667000       0.57241000 </v>
    <v>       0.77778000       0.88889000       0.27247000 </v>
    <v>       0.88889000       0.77778000       0.42244000 </v>
    <v>       0.77778000       0.88889000       0.49742000 </v>
    <v>       0.66667000       0.66667000       0.34745000 </v>
    <v>       0.49823000       0.50828000       0.57211000 </v>
    <v>       0.17351000       0.18288000       0.57211000 </v>
    <v>       0.50907000       0.16924000       0.57211000 </v>
    <v>       0.82607000       0.50227000       0.57211000 </v>
    <v>       0.83547000       0.83306000       0.57211000 </v>
    <v>       0.50468000       0.83649000       0.57211000 </v>
    <v>       0.15481000       0.48807000       0.57211000 </v>
   </varray>
  </structure>
  <varray name="primitive_index" >
   <v type="int" >        1 </v>
   <v type="int" >        2 </v>
   <v type="int" >        3 </v>
   <v type="int" >        4 </v>
   <v type="int" >        5 </v>
   <v type="int" >        6 </v>
   <v type="int" >        7 </v>
   <v type="int" >        8 </v>
   <v type="int" >        9 </v>
   <v type="int" >       10 </v>
   <v type="int" >       11 </v>
   <v type="int" >       12 </v>
   <v type="int" >       13 </v>
   <v type="int" >       14 </v>
   <v type="int" >       15 </v>
   <v type="int" >       16 </v>
   <v type="int" >       17 </v>
   <v type="int" >       18 </v>
   <v type="int" >       19 </v>
   <v type="int" >       20 </v>
   <v type="int" >       21 </v>
   <v type="int" >       22 </v>
   <v type="int" >       23 </v>
   <v type="int" >       24 </v>
   <v type="int" >       25 </v>
   <v type="int" >       26 </v>
   <v type="int" >       27 </v>
   <v type="int" >       28 </v>
   <v type="int" >       29 </v>
   <v type="int" >       30 </v>
   <v type="int" >       31 </v>
   <v type="int" >       32 </v>
   <v type="int" >       33 </v>
   <v type="int" >       34 </v>
   <v type="int" >       35 </v>
   <v type="int" >       36 </v>
   <v type="int" >       37 </v>
   <v type="int" >       38 </v>
   <v type="int" >       39 </v>
   <v type="int" >       40 </v>
   <v type="int" >       41 </v>
   <v type="int" >       42 </v>
   <v type="int" >       43 </v>
   <v type="int" >       44 </v>
   <v type="int" >       45 </v>
   <v type="int" >       46 </v>
   <v type="int" >       47 </v>
   <v type="int" >       48 </v>
   <v type="int" >       49 </v>
   <v type="int" >       50 </v>
   <v type="int" >       51 </v>
   <v type="int" >       52 </v>
   <v type="int" >       53 </v>
   <v type="int" >       54 </v>
   <v type="int" >       55 </v>
   <v type="int" >       56 </v>
   <v type="int" >       57 </v>
   <v type="int" >       58 </v>
   <v type="int" >       59 </v>
   <v type="int" >       60 </v>
   <v type="int" >       61 </v>
   <v type="int" >       62 </v>
   <v type="int" >       63 </v>
   <v type="int" >       64 </v>
   <v type="int" >       65 </v>
   <v type="int" >       66 </v>
   <v type="int" >       67 </v>
   <v type="int" >       68 </v>
   <v type="int" >       69 </v>
   <v type="int" >       70 </v>
  </varray>
 </primitive_cell>
 <kpoints>
  <generation param="Gamma">
   <v type="int" name="divisions">       1        1        1 </v>
   <v name="usershift">      0.00000000       0.00000000       0.00000000 </v>
   <v name="genvec1">      1.00000000      -0.00000000       0.00000000 </v>
   <v name="genvec2">      0.00000000       1.00000000       0.00000000 </v>
   <v name="genvec3">      0.00000000       0.00000000       1.00000000 </v>
   <v name="shift">      0.00000000       0.00000000       0.00000000 </v>
  </generation>
  <varray name="kpointlist" >
   <v>       0.00000000       0.00000000       0.00000000 </v>
  </varray>
  <varray name="weights" >
   <v>       1.00000000 </v>
  </varray>
 </kpoints>
 <parameters>
  <separator name="general" >
   <i type="string" name="SYSTEM">unknown system</i>
   <i type="logical" name="LCOMPAT"> F  </i>
  </separator>
  <separator name="electronic" >
   <i type="string" name="PREC">accura</i>
   <i name="ENMAX">    520.00000000</i>
   <i name="ENAUG">    605.39200000</i>
   <i name="EDIFF">      0.00000100</i>
   <i type="int" name="IALGO">    38</i>
   <i type="int" name="IWAVPR">    11</i>
   <i type="int" name="NBANDS">   384</i>
   <i type="int" name="NBANDSLOW">    -1</i>
   <i type="int" name="NBANDSHIGH">    -1</i>
   <i name="NELECT">    549.00000000</i>
   <i type="int" name="TURBO">     0</i>
   <i type="int" name="IRESTART">     0</i>
   <i type="int" name="NREBOOT">     0</i>
   <i type="int" name="NMIN">     0</i>
   <i name="EREF">      0.00000000</i>
   <separator name="electronic smearing" >
    <i type="int" name="ISMEAR">     0</i>
    <i name="SIGMA">      0.05000000</i>
    <i name="KSPACING">      0.50000000</i>
    <i type="logical" name="KGAMMA"> T  </i>
    <i type="logical" name="KBLOWUP"> T  </i>
   </separator>
   <separator name="electronic projectors" >
    <i type="logical" name="LREAL"> F  </i>
    <v name="ROPT">      0.00000000      0.00000000      0.00000000</v>
    <i type="int" name="LMAXPAW">  -100</i>
    <i type="int" name="LMAXMIX">     6</i>
    <i type="logical" name="NLSPLINE"> F  </i>
   </separator>
   <separator name="electronic startup" >
    <i type="int" name="ISTART">     0</i>
    <i type="int" name="ICHARG">     2</i>
    <i type="int" name="INIWAV">     1</i>
   </separator>
   <separator name="electronic spin" >
    <i type="int" name="ISPIN">     2</i>
    <i type="logical" name="LNONCOLLINEAR"> F  </i>
    <v name="MAGMOM">      1.00000000      1.00000000      1.00000000      1.00000000      1.00000000      1.00000000      1.00000000      1.00000000      1.00000000      1.00000000      1.00000000      1.00000000      1.00000000      1.00000000      1.00000000      1.00000000      1.00000000      1.00000000      0.60000000      0.60000000
      0.60000000      0.60000000      0.60000000      0.60000000      0.60000000      0.60000000      0.60000000      0.60000000      0.60000000      0.60000000      0.60000000      0.60000000      0.60000000      0.60000000      0.60000000      0.60000000      0.60000000      0.60000000      0.60000000      0.60000000
      0.60000000      0.60000000      0.60000000      0.60000000      0.60000000      0.60000000      0.60000000      0.60000000      0.60000000      0.60000000      0.60000000      0.60000000      0.60000000      0.60000000      0.60000000      0.60000000      0.60000000      0.60000000      0.60000000      0.60000000
      0.60000000      0.60000000      0.60000000      0.60000000      0.60000000      0.60000000      0.60000000      0.60000000      0.60000000      0.60000000</v>
    <i name="NUPDOWN">     -1.00000000</i>
    <i type="logical" name="LSORBIT"> F  </i>
    <v name="SAXIS">      0.00000000      0.00000000      1.00000000</v>
    <i type="logical" name="LSPIRAL"> F  </i>
    <v name="QSPIRAL">      0.00000000      0.00000000      0.00000000</v>
    <i type="logical" name="LZEROZ"> F  </i>
   </separator>
   <separator name="electronic exchange-correlation" >
    <i type="logical" name="LASPH"> T  </i>
   </separator>
   <separator name="electronic convergence" >
    <i type="int" name="NELM">    90</i>
    <i type="int" name="NELMDL">     0</i>
    <i type="int" name="NELMIN">     6</i>
    <i name="ENINI">    520.00000000</i>
    <separator name="electronic convergence detail" >
     <i type="logical" name="LDIAG"> T  </i>
     <i type="logical" name="LSUBROT"> F  </i>
     <i name="WEIMIN">      0.00100000</i>
     <i name="EBREAK">      0.00000000</i>
     <i name="DEPER">      0.30000000</i>
     <i type="int" name="NRMM">     4</i>
     <i name="TIME">      0.40000000</i>
    </separator>
   </separator>
   <separator name="electronic mixer" >
    <i name="AMIX">      0.40000000</i>
    <i name="BMIX">      1.00000000</i>
    <i name="AMIN">      0.10000000</i>
    <i name="AMIX_MAG">      1.60000000</i>
    <i name="BMIX_MAG">      1.00000000</i>
    <separator name="electronic mixer details" >
     <i type="int" name="IMIX">     4</i>
     <i type="logical" name="MIXFIRST"> F  </i>
     <i type="int" name="MAXMIX">   -45</i>
     <i name="WC">    100.00000000</i>
     <i type="int" name="INIMIX">     1</i>
     <i type="int" name="MIXPRE">     1</i>
     <i type="int" name="MREMOVE">     5</i>
    </separator>
   </separator>
   <separator name="electronic dipolcorrection" >
    <i type="logical" name="LDIPOL"> F  </i>
    <i type="logical" name="LMONO"> F  </i>
    <i type="int" name="IDIPOL">     0</i>
    <i name="EPSILON">      1.00000000</i>
    <v name="DIPOL">   -100.00000000   -100.00000000   -100.00000000</v>
    <i name="EFIELD">      0.00000000</i>
    <i type="logical" name="LVACPOTAV"> F  </i>
   </separator>
  </separator>
  <separator name="grids" >
   <i type="int" name="NGX">    90</i>
   <i type="int" name="NGY">    90</i>
   <i type="int" name="NGZ">   160</i>
   <i type="int" name="NGXF">   180</i>
   <i type="int" name="NGYF">   180</i>
   <i type="int" name="NGZF">   320</i>
   <i type="logical" name="ADDGRID"> T  </i>
  </separator>
  <separator name="ionic" >
   <i type="int" name="NSW">   300</i>
   <i type="int" name="IBRION">     2</i>
   <i type="int" name="MDALGO">     0</i>
   <i type="int" name="ISIF">     2</i>
   <i name="PSTRESS">      0.00000000</i>
   <i name="EDIFFG">     -0.02000000</i>
   <i type="int" name="NFREE">     1</i>
   <i name="POTIM">      0.50000000</i>
   <i name="SMASS">     -3.00000000</i>
   <i name="SCALEE">      1.00000000</i>
  </separator>
  <separator name="ionic md" >
   <i name="TEBEG">      0.00010000</i>
   <i name="TEEND">      0.00010000</i>
   <i type="int" name="NBLOCK">     1</i>
   <i type="int" name="KBLOCK">   300</i>
   <i type="int" name="NPACO">   256</i>
   <i name="APACO">     10.00000000</i>
  </separator>
  <separator name="symmetry" >
   <i type="int" name="ISYM">     2</i>
   <i name="SYMPREC">      0.00001000</i>
  </separator>
  <separator name="dos" >
   <i type="int" name="LORBIT">     0</i>
   <v name="RWIGS">     -1.00000000     -1.00000000     -1.00000000</v>
   <i type="int" name="NEDOS">   301</i>
   <i name="EMIN">     10.00000000</i>
   <i name="EMAX">    -10.00000000</i>
   <i name="EFERMI">      0.00000000</i>
  </separator>
  <separator name="writing" >
   <i type="int" name="NWRITE">     2</i>
   <i type="logical" name="LWAVE"> F  </i>
   <i type="logical" name="LDOWNSAMPLE"> F  </i>
   <i type="logical" name="LCHARG"> F  </i>
   <i type="logical" name="LPARD"> F  </i>
   <i type="logical" name="LVTOT"> F  </i>
   <i type="logical" name="LVHAR"> F  </i>
   <i type="logical" name="LELF"> F  </i>
   <i type="logical" name="LOPTICS"> F  </i>
   <v name="STM">      0.00000000      0.00000000      0.00000000      0.00000000      0.00000000      0.00000000      0.00000000</v>
  </separator>
  <separator name="performance" >
   <i type="int" name="NPAR">    48</i>
   <i type="int" name="NSIM">     4</i>
   <i type="int" name="NBLK">    -1</i>
   <i type="logical" name="LPLANE"> T  </i>
   <i type="logical" name="LSCALAPACK"> T  </i>
   <i type="logical" name="LSCAAWARE"> T  </i>
   <i type="logical" name="LSCALU"> F  </i>
   <i type="logical" name="LASYNC"> F  </i>
   <i type="logical" name="LORBITALREAL"> F  </i>
  </separator>
  <separator name="miscellaneous" >
   <i type="int" name="IDIOT">     3</i>
   <i type="int" name="PHON_NSTRUCT">    -1</i>
   <i type="logical" name="LMUSIC"> F  </i>
   <v name="POMASS">    140.11500000     16.00000000    192.22000000</v>
   <v name="DARWINR">      0.00000000      0.00000000      0.00000000</v>
   <v name="DARWINV">      1.00000000      1.00000000      1.00000000</v>
   <i type="logical" name="LCORR"> T  </i>
  </separator>
  <i type="logical" name="GGA_COMPAT"> T  </i>
  <i type="logical" name="LBERRY"> F  </i>
  <i type="int" name="ICORELEVEL">     0</i>
  <i type="logical" name="LDAU"> T  </i>
  <v type="int" name="LDAUTYPE">     2</v>
  <v type="int" name="LDAUL">     3</v>
  <v name="LDAUU">      5.00000000</v>
  <v name="LDAUJ">      0.00000000</v>
  <i type="int" name="LDAUPRINT">     0</i>
  <i type="int" name="I_CONSTRAINED_M">     0</i>
  <separator name="electronic exchange-correlation" >
   <i type="string" name="GGA    ">PE</i>
   <i type="string" name="XC_C">1</i>
   <i type="int" name="VOSKOWN">     0</i>
   <i type="logical" name="LHFCALC"> F  </i>
   <i type="string" name="PRECFOCK"></i>
   <i type="logical" name="LSYMGRAD"> F  </i>
   <i type="logical" name="LHFONE"> F  </i>
   <i type="logical" name="LRHFCALC"> F  </i>
   <i type="logical" name="LTHOMAS"> F  </i>
   <i type="logical" name="LMODELHF"> F  </i>
   <i type="logical" name="LFOCKACE"> F  </i>
   <i name="ENCUT4O">     -1.00000000</i>
   <i type="int" name="EXXOEP">     0</i>
   <i type="int" name="FOURORBIT">     0</i>
   <i name="AEXX">      0.00000000</i>
   <i name="HFALPHA">      0.00000000</i>
   <i name="MCALPHA">      0.00000000</i>
   <i name="ALDAX">      1.00000000</i>
   <i name="AGGAX">      1.00000000</i>
   <i name="AMGGAX">      1.00000000</i>
   <i name="ALDAC">      1.00000000</i>
   <i name="AGGAC">      1.00000000</i>
   <i name="AMGGAC">      1.00000000</i>
   <i type="int" name="NKREDX">     1</i>
   <i type="int" name="NKREDY">     1</i>
   <i type="int" name="NKREDZ">     1</i>
   <i type="logical" name="SHIFTRED"> F  </i>
   <i type="logical" name="ODDONLY"> F  </i>
   <i type="logical" name="EVENONLY"> F  </i>
   <i type="int" name="LMAXFOCK">     0</i>
   <i type="int" name="NMAXFOCKAE">     0</i>
   <i type="logical" name="LFOCKAEDFT"> F  </i>
   <i name="HFSCREEN">      0.00000000</i>
   <i name="HFSCREENC">      0.00000000</i>
   <i type="int" name="NBANDSGWLOW">     0</i>
  </separator>
  <separator name="vdW DFT" >
   <i type="logical" name="LUSE_VDW"> F  </i>
   <i type="int" name="IVDW_NL">    -1</i>
   <i type="logical" name="LSPIN_VDW"> F  </i>
   <i name="ZAB_VDW">     -0.84910000</i>
   <i name="GAMMA_VDW">      1.39626340</i>
   <i name="ALPHA_VDW">      0.00000000</i>
   <i name="PARAM1">      0.12340000</i>
   <i name="PARAM2">      1.00000000</i>
   <i name="BPARAM">      6.30000000</i>
   <i name="CPARAM">      0.00930000</i>
  </separator>
  <separator name="model GW" >
   <i type="int" name="MODEL_GW">     0</i>
   <i name="MODEL_EPS0">     21.01744849</i>
   <i name="MODEL_ALPHA">      1.00000000</i>
  </separator>
  <separator name="linear response parameters" >
   <i type="logical" name="LEPSILON"> F  </i>
   <i type="logical" name="LRPA"> F  </i>
   <i type="logical" name="LNABLA"> F  </i>
   <i type="logical" name="LVEL"> F  </i>
   <i name="CSHIFT">      0.10000000</i>
   <i name="OMEGAMAX">     -1.00000000</i>
   <i name="DEG_THRESHOLD">      0.00200000</i>
   <i name="RTIME">     -0.10000000</i>
   <i name="WPLASMAI">      0.00000000</i>
   <v name="DFIELD">      0.00000000      0.00000000      0.00000000</v>
   <v name="WPLASMA">      0.00000000      0.00000000      0.00000000      0.00000000      0.00000000      0.00000000      0.00000000      0.00000000      0.00000000</v>
  </separator>
  <separator name="orbital magnetization" >
   <i type="logical" name="NUCIND"> F  </i>
   <v name="MAGPOS">      0.00000000      0.00000000      0.00000000</v>
   <i type="logical" name="LNICSALL"> T  </i>
   <i type="logical" name="ORBITALMAG"> F  </i>
   <i type="logical" name="LMAGBLOCH"> F  </i>
   <i type="logical" name="LCHIMAG"> F  </i>
   <i type="logical" name="LGAUGE"> T  </i>
   <i type="int" name="MAGATOM">     0</i>
   <v name="MAGDIPOL">      0.00000000      0.00000000      0.00000000</v>
   <v name="AVECCONST">      0.00000000      0.00000000      0.00000000</v>
  </separator>
  <separator name="response functions" >
   <i type="logical" name="LALL_IN_ONE"> F  </i>
   <i type="int" name="IALL_IN_ONE">    -1</i>
   <i type="int" name="NBANDS_WAVE">    -1</i>
   <i type="logical" name="LFINITE_TEMPERATURE"> F  </i>
   <i type="logical" name="LADDER"> F  </i>
   <i type="logical" name="LRPAFORCE"> F  </i>
   <i type="logical" name="LFXC"> F  </i>
   <i type="logical" name="LHARTREE"> T  </i>
   <i type="int" name="IBSE">     0</i>
   <v type="int" name="KPOINT">    -1     0     0     0</v>
   <i type="logical" name="LTCTC"> F  </i>
   <i type="logical" name="LTCTE"> F  </i>
   <i type="logical" name="LTETE"> F  </i>
   <i type="logical" name="LTRIPLET"> F  </i>
   <i type="logical" name="LFXCEPS"> F  </i>
   <i type="logical" name="LFXHEG"> F  </i>
   <i type="int" name="NATURALO">     2</i>
   <i type="logical" name="LHOLEGF"> F  </i>
   <i type="logical" name="L2ORDER"> F  </i>
   <i type="logical" name="LDMP1"> F  </i>
   <i type="logical" name="LMP2LT"> F  </i>
   <i type="logical" name="LSMP2LT"> F  </i>
   <i type="logical" name="LGWLF"> F  </i>
   <i name="ENCUTGW">     -1.60000002</i>
   <i name="ENCUTGWSOFT">     -1.60000002</i>
   <i name="ENCUTLF">     -1.00000000</i>
   <i type="logical" name="ESF_SPLINES"> F  </i>
   <i name="ESF_CONV">      0.01000000</i>
   <i type="int" name="ESF_NINTER">    15</i>
   <i type="int" name="LMAXMP2">    -1</i>
   <i name="SCISSOR">      0.00000000</i>
   <i type="int" name="NOMEGA">     0</i>
   <i type="int" name="NOMEGAR">     0</i>
   <i type="int" name="NBANDSGW">    -1</i>
   <i type="int" name="NBANDSO">    -1</i>
   <i type="int" name="NBANDSV">    -1</i>
   <i type="int" name="NELMGW">     1</i>
   <i type="int" name="NELMHF">     1</i>
   <i type="int" name="DIM">     3</i>
   <i type="int" name="IESPILON">     4</i>
   <i type="int" name="ANTIRES">     0</i>
   <i name="OMEGAMAX">    -30.00000000</i>
   <i name="OMEGAMIN">    -30.00000000</i>
   <i name="OMEGATL">   -200.00000000</i>
   <i type="int" name="OMEGAGRID">     0</i>
   <i name="CSHIFT">     -0.10000000</i>
   <i type="logical" name="LSELFENERGY"> F  </i>
   <i type="logical" name="LSPECTRAL"> F  </i>
   <i type="logical" name="LSPECTRALGW"> F  </i>
   <i type="logical" name="LSINGLES"> F  </i>
   <i type="logical" name="LFERMIGW"> F  </i>
   <i type="logical" name="ODDONLYGW"> F  </i>
   <i type="logical" name="EVENONLYGW"> F  </i>
   <i type="int" name="NKREDLFX">     1</i>
   <i type="int" name="NKREDLFY">     1</i>
   <i type="int" name="NKREDLFZ">     1</i>
   <i type="int" name="MAXMEM">  2800</i>
   <i type="int" name="TELESCOPE">     0</i>
   <i type="int" name="NTAUPAR">    -1</i>
   <i type="int" name="NOMEGAPAR">    -1</i>
   <i name="DAMP_NEWTON">      0.80000001</i>
   <i name="LAMBDA">      1.00000000</i>
  </separator>
  <separator name="External order field" >
   <i name="OFIELD_KAPPA">      0.00000000</i>
   <v name="OFIELD_K">      0.00000000      0.00000000      0.00000000</v>
   <i name="OFIELD_Q6_NEAR">      0.00000000</i>
   <i name="OFIELD_Q6_FAR">      0.00000000</i>
   <i name="OFIELD_A">      0.00000000</i>
  </separator>
  <separator name="optional k-points parameters" >
   <i type="int" name="KPOINTS_OPT_MODE">     1</i>
   <i type="logical" name="LKPOINTS_OPT"> F  </i>
  </separator>
 </parameters>
 <atominfo>
  <atoms>      70 </atoms>
  <types>       3 </types>
  <array name="atoms" >
   <dimension dim="1">ion</dimension>
   <field type="string">element</field>
   <field type="int">atomtype</field>
   <set>
    <rc><c>Ce</c><c>   1</c></rc>
    <rc><c>Ce</c><c>   1</c></rc>
    <rc><c>Ce</c><c>   1</c></rc>
    <rc><c>Ce</c><c>   1</c></rc>
    <rc><c>Ce</c><c>   1</c></rc>
    <rc><c>Ce</c><c>   1</c></rc>
    <rc><c>Ce</c><c>   1</c></rc>
    <rc><c>Ce</c><c>   1</c></rc>
    <rc><c>Ce</c><c>   1</c></rc>
    <rc><c>Ce</c><c>   1</c></rc>
    <rc><c>Ce</c><c>   1</c></rc>
    <rc><c>Ce</c><c>   1</c></rc>
    <rc><c>Ce</c><c>   1</c></rc>
    <rc><c>Ce</c><c>   1</c></rc>
    <rc><c>Ce</c><c>   1</c></rc>
    <rc><c>Ce</c><c>   1</c></rc>
    <rc><c>Ce</c><c>   1</c></rc>
    <rc><c>Ce</c><c>   1</c></rc>
    <rc><c>O </c><c>   2</c></rc>
    <rc><c>O </c><c>   2</c></rc>
    <rc><c>O </c><c>   2</c></rc>
    <rc><c>O </c><c>   2</c></rc>
    <rc><c>O </c><c>   2</c></rc>
    <rc><c>O </c><c>   2</c></rc>
    <rc><c>O </c><c>   2</c></rc>
    <rc><c>O </c><c>   2</c></rc>
    <rc><c>O </c><c>   2</c></rc>
    <rc><c>O </c><c>   2</c></rc>
    <rc><c>O </c><c>   2</c></rc>
    <rc><c>O </c><c>   2</c></rc>
    <rc><c>O </c><c>   2</c></rc>
    <rc><c>O </c><c>   2</c></rc>
    <rc><c>O </c><c>   2</c></rc>
    <rc><c>O </c><c>   2</c></rc>
    <rc><c>O </c><c>   2</c></rc>
    <rc><c>O </c><c>   2</c></rc>
    <rc><c>O </c><c>   2</c></rc>
    <rc><c>O </c><c>   2</c></rc>
    <rc><c>O </c><c>   2</c></rc>
    <rc><c>O </c><c>   2</c></rc>
    <rc><c>O </c><c>   2</c></rc>
    <rc><c>O </c><c>   2</c></rc>
    <rc><c>O </c><c>   2</c></rc>
    <rc><c>O </c><c>   2</c></rc>
    <rc><c>O </c><c>   2</c></rc>
    <rc><c>O </c><c>   2</c></rc>
    <rc><c>O </c><c>   2</c></rc>
    <rc><c>O </c><c>   2</c></rc>
    <rc><c>O </c><c>   2</c></rc>
    <rc><c>O </c><c>   2</c></rc>
    <rc><c>O </c><c>   2</c></rc>
    <rc><c>O </c><c>   2</c></rc>
    <rc><c>O </c><c>   2</c></rc>
    <rc><c>O </c><c>   2</c></rc>
    <rc><c>O </c><c>   2</c></rc>
    <rc><c>O </c><c>   2</c></rc>
    <rc><c>O </c><c>   2</c></rc>
    <rc><c>O </c><c>   2</c></rc>
    <rc><c>O </c><c>   2</c></rc>
    <rc><c>O </c><c>   2</c></rc>
    <rc><c>O </c><c>   2</c></rc>
    <rc><c>O </c><c>   2</c></rc>
    <rc><c>O </c><c>   2</c></rc>
    <rc><c>Ir</c><c>   3</c></rc>
    <rc><c>Ir</c><c>   3</c></rc>
    <rc><c>Ir</c><c>   3</c></rc>
    <rc><c>Ir</c><c>   3</c></rc>
    <rc><c>Ir</c><c>   3</c></rc>
    <rc><c>Ir</c><c>   3</c></rc>
    <rc><c>Ir</c><c>   3</c></rc>
   </set>
  </array>
  <array name="atomtypes" >
   <dimension dim="1">type</dimension>
   <field type="int">atomspertype</field>
   <field type="string">element</field>
   <field>mass</field>
   <field>valence</field>
   <field type="string">pseudopotential</field>
   <set>
    <rc><c>  18</c><c>Ce</c><c>    140.11500000</c><c>     12.00000000</c><c>  PAW_PBE Ce 23Dec2003                  </c></rc>
    <rc><c>  45</c><c>O </c><c>     16.00000000</c><c>      6.00000000</c><c>  PAW_PBE O 08Apr2002                   </c></rc>
    <rc><c>   7</c><c>Ir</c><c>    192.22000000</c><c>      9.00000000</c><c>  PAW_PBE Ir 06Sep2000                  </c></rc>
   </set>
  </array>
 </atominfo>
 <structure name="initialpos" >
  <crystal>
   <varray name="basis" >
    <v>      11.59819984       0.00000000       0.00000000 </v>
    <v>      -5.79909992      10.04433570       0.00000000 </v>
    <v>       0.00000000       0.00000000      21.04820061 </v>
   </varray>
   <i name="volume">   2452.03565684 </i>
   <varray name="rec_basis" >
    <v>       0.08622028       0.04977930       0.00000000 </v>
    <v>       0.00000000       0.09955860       0.00000000 </v>
    <v>       0.00000000       0.00000000       0.04751000 </v>
   </varray>
  </crystal>
  <varray name="positions" >
   <v>       0.00000000       0.00000000       0.45993000 </v>
   <v>       0.22222000       0.11111000       0.30996000 </v>
   <v>       0.33333000       0.00000000       0.45993000 </v>
   <v>       0.55556000       0.11111000       0.30996000 </v>
   <v>       0.66667000       0.00000000       0.45993000 </v>
   <v>       0.88889000       0.11111000       0.30996000 </v>
   <v>       0.00000000       0.33333000       0.45993000 </v>
   <v>       0.22222000       0.44444000       0.30996000 </v>
   <v>       0.33333000       0.33333000       0.45993000 </v>
   <v>       0.55556000       0.44444000       0.30996000 </v>
   <v>       0.66667000       0.33333000       0.45993000 </v>
   <v>       0.88889000       0.44444000       0.30996000 </v>
   <v>       0.00000000       0.66667000       0.45993000 </v>
   <v>       0.22222000       0.77778000       0.30996000 </v>
   <v>       0.33333000       0.66667000       0.45993000 </v>
   <v>       0.55556000       0.77778000       0.30996000 </v>
   <v>       0.66667000       0.66667000       0.45993000 </v>
   <v>       0.88889000       0.77778000       0.30996000 </v>
   <v>       0.00000000       0.00000000       0.57241000 </v>
   <v>       0.11111000       0.22222000       0.27247000 </v>
   <v>       0.22222000       0.11111000       0.42244000 </v>
   <v>       0.11111000       0.22222000       0.49742000 </v>
   <v>       0.00000000       0.00000000       0.34745000 </v>
   <v>       0.33333000       0.00000000       0.57241000 </v>
   <v>       0.44444000       0.22222000       0.27247000 </v>
   <v>       0.55556000       0.11111000       0.42244000 </v>
   <v>       0.44444000       0.22222000       0.49742000 </v>
   <v>       0.33333000       0.00000000       0.34745000 </v>
   <v>       0.66667000       0.00000000       0.57241000 </v>
   <v>       0.77778000       0.22222000       0.27247000 </v>
   <v>       0.88889000       0.11111000       0.42244000 </v>
   <v>       0.77778000       0.22222000       0.49742000 </v>
   <v>       0.66667000       0.00000000       0.34745000 </v>
   <v>       0.00000000       0.33333000       0.57241000 </v>
   <v>       0.11111000       0.55556000       0.27247000 </v>
   <v>       0.22222000       0.44444000       0.42244000 </v>
   <v>       0.11111000       0.55556000       0.49742000 </v>
   <v>       0.00000000       0.33333000       0.34745000 </v>
   <v>       0.33333000       0.33333000       0.57241000 </v>
   <v>       0.44444000       0.55556000       0.27247000 </v>
   <v>       0.55556000       0.44444000       0.42244000 </v>
   <v>       0.44444000       0.55556000       0.49742000 </v>
   <v>       0.33333000       0.33333000       0.34745000 </v>
   <v>       0.66667000       0.33333000       0.57241000 </v>
   <v>       0.77778000       0.55556000       0.27247000 </v>
   <v>       0.88889000       0.44444000       0.42244000 </v>
   <v>       0.77778000       0.55556000       0.49742000 </v>
   <v>       0.66667000       0.33333000       0.34745000 </v>
   <v>       0.00000000       0.66667000       0.57241000 </v>
   <v>       0.11111000       0.88889000       0.27247000 </v>
   <v>       0.22222000       0.77778000       0.42244000 </v>
   <v>       0.11111000       0.88889000       0.49742000 </v>
   <v>       0.00000000       0.66667000       0.34745000 </v>
   <v>       0.33333000       0.66667000       0.57241000 </v>
   <v>       0.44444000       0.88889000       0.27247000 </v>
   <v>       0.55556000       0.77778000       0.42244000 </v>
   <v>       0.44444000       0.88889000       0.49742000 </v>
   <v>       0.33333000       0.66667000       0.34745000 </v>
   <v>       0.66667000       0.66667000       0.57241000 </v>
   <v>       0.77778000       0.88889000       0.27247000 </v>
   <v>       0.88889000       0.77778000       0.42244000 </v>
   <v>       0.77778000       0.88889000       0.49742000 </v>
   <v>       0.66667000       0.66667000       0.34745000 </v>
   <v>       0.49823000       0.50828000       0.57211000 </v>
   <v>       0.17351000       0.18288000       0.57211000 </v>
   <v>       0.50907000       0.16924000       0.57211000 </v>
   <v>       0.82607000       0.50227000       0.57211000 </v>
   <v>       0.83547000       0.83306000       0.57211000 </v>
   <v>       0.50468000       0.83649000       0.57211000 </v>
   <v>       0.15481000       0.48807000       0.57211000 </v>
  </varray>
  <varray name="selective"  type="logical" >
   <v type="logical" >  T  T  T </v>
   <v type="logical" >  F  F  F </v>
   <v type="logical" >  T  T  T </v>
   <v type="logical" >  F  F  F </v>
   <v type="logical" >  T  T  T </v>
   <v type="logical" >  F  F  F </v>
   <v type="logical" >  T  T  T </v>
   <v type="logical" >  F  F  F </v>
   <v type="logical" >  T  T  T </v>
   <v type="logical" >  F  F  F </v>
   <v type="logical" >  T  T  T </v>
   <v type="logical" >  F  F  F </v>
   <v type="logical" >  T  T  T </v>
   <v type="logical" >  F  F  F </v>
   <v type="logical" >  T  T  T </v>
   <v type="logical" >  F  F  F </v>
   <v type="logical" >  T  T  T </v>
   <v type="logical" >  F  F  F </v>
   <v type="logical" >  T  T  T </v>
   <v type="logical" >  F  F  F </v>
   <v type="logical" >  T  T  T </v>
   <v type="logical" >  T  T  T </v>
   <v type="logical" >  F  F  F </v>
   <v type="logical" >  T  T  T </v>
   <v type="logical" >  F  F  F </v>
   <v type="logical" >  T  T  T </v>
   <v type="logical" >  T  T  T </v>
   <v type="logical" >  F  F  F </v>
   <v type="logical" >  T  T  T </v>
   <v type="logical" >  F  F  F </v>
   <v type="logical" >  T  T  T </v>
   <v type="logical" >  T  T  T </v>
   <v type="logical" >  F  F  F </v>
   <v type="logical" >  T  T  T </v>
   <v type="logical" >  F  F  F </v>
   <v type="logical" >  T  T  T </v>
   <v type="logical" >  T  T  T </v>
   <v type="logical" >  F  F  F </v>
   <v type="logical" >  T  T  T </v>
   <v type="logical" >  F  F  F </v>
   <v type="logical" >  T  T  T </v>
   <v type="logical" >  T  T  T </v>
   <v type="logical" >  F  F  F </v>
   <v type="logical" >  T  T  T </v>
   <v type="logical" >  F  F  F </v>
   <v type="logical" >  T  T  T </v>
   <v type="logical" >  T  T  T </v>
   <v type="logical" >  F  F  F </v>
   <v type="logical" >  T  T  T </v>
   <v type="logical" >  F  F  F </v>
   <v type="logical" >  T  T  T </v>
   <v type="logical" >  T  T  T </v>
   <v type="logical" >  F  F  F </v>
   <v type="logical" >  T  T  T </v>
   <v type="logical" >  F  F  F </v>
   <v type="logical" >  T  T  T </v>
   <v type="logical" >  T  T  T </v>
   <v type="logical" >  F  F  F </v>
   <v type="logical" >  T  T  T </v>
   <v type="logical" >  F  F  F </v>
   <v type="logical" >  T  T  T </v>
   <v type="logical" >  T  T  T </v>
   <v type="logical" >  F  F  F </v>
   <v type="logical" >  T  T  T </v>
   <v type="logical" >  T  T  T </v>
   <v type="logical" >  T  T  T </v>
   <v type="logical" >  T  T  T </v>
   <v type="logical" >  T  T  T </v>
   <v type="logical" >  T  T  T </v>
   <v type="logical" >  T  T  T </v>
  </varray>
  <nose>
   <v>      -3.00000000       0.00000000       0.00010000       0.00010000 </v>
  </nose>
 </structure>
 <calculation>
  <scstep>
   <time name="dav">    1.70    1.83</time>
   <time name="total">    2.85    2.99</time>
   <energy>
    <i name="alphaZ">   1138.74096316 </i>
    <i name="ewald"> 129565.03039835 </i>
    <i name="hartreedc">-168005.97555837 </i>
    <i name="XCdc">   1222.03116290 </i>
    <i name="pawpsdc">  34766.11369221 </i>
    <i name="pawaedc"> -34089.97070961 </i>
    <i name="eentropy">     -0.03803894 </i>
    <i name="bandstr">   2604.14888965 </i>
    <i name="atom">  42512.69364877 </i>
    <i name="e_fr_energy">   9712.77444812 </i>
    <i name="e_wo_entrp">   9712.81248706 </i>
    <i name="e_0_energy">   9712.79346759 </i>
   </energy>
  </scstep>
  <scstep>
   <time name="dav">    1.86    1.87</time>
   <time name="total">    1.86    1.87</time>
   <energy>
    <i name="e_fr_energy">   2661.25690775 </i>
    <i name="e_wo_entrp">   2661.35662537 </i>
    <i name="e_0_energy">   2661.30676656 </i>
   </energy>
  </scstep>
  <scstep>
   <time name="dav">    2.24    2.25</time>
   <time name="total">    2.24    2.25</time>
   <energy>
    <i name="e_fr_energy">   -296.02082234 </i>
    <i name="e_wo_entrp">   -295.96003544 </i>
    <i name="e_0_energy">   -295.99042889 </i>
   </energy>
  </scstep>
  <scstep>
   <time name="dav">    2.07    2.07</time>
   <time name="total">    2.07    2.08</time>
   <energy>
    <i name="e_fr_energy">   -637.61396042 </i>
    <i name="e_wo_entrp">   -637.57552535 </i>
    <i name="e_0_energy">   -637.59474289 </i>
   </energy>
  </scstep>
  <scstep>
   <time name="dav">    2.50    2.50</time>
   <time name="total">    3.15    3.16</time>
   <energy>
    <i name="e_fr_energy">   -655.80178268 </i>
    <i name="e_wo_entrp">   -655.76460697 </i>
    <i name="e_0_energy">   -655.78319482 </i>
   </energy>
  </scstep>
  <scstep>
   <time name="dav">    2.03    2.03</time>
   <time name="total">    3.73    3.74</time>
   <energy>
    <i name="e_fr_energy">   -514.46423606 </i>
    <i name="e_wo_entrp">   -514.21712664 </i>
    <i name="e_0_energy">   -514.34068135 </i>
   </energy>
  </scstep>
  <scstep>
   <time name="dav">    2.34    2.34</time>
   <time name="total">    4.02    4.02</time>
   <energy>
    <i name="e_fr_energy">   -534.77337573 </i>
    <i name="e_wo_entrp">   -534.71148785 </i>
    <i name="e_0_energy">   -534.74243179 </i>
   </energy>
  </scstep>
  <scstep>
   <time name="dav">    2.18    2.18</time>
   <time name="total">    3.88    3.89</time>
   <energy>
    <i name="e_fr_energy">   -566.22584495 </i>
    <i name="e_wo_entrp">   -566.19301469 </i>
    <i name="e_0_energy">   -566.20942982 </i>
   </energy>
  </scstep>
  <scstep>
   <time name="dav">    2.35    2.35</time>
   <time name="total">    4.04    4.06</time>
   <energy>
    <i name="e_fr_energy">   -521.90073815 </i>
    <i name="e_wo_entrp">   -521.86712014 </i>
    <i name="e_0_energy">   -521.88392915 </i>
   </energy>
  </scstep>
  <scstep>
   <time name="dav">    2.22    2.23</time>
   <time name="total">    3.91    3.94</time>
   <energy>
    <i name="e_fr_energy">   -504.44540950 </i>
    <i name="e_wo_entrp">   -504.41457273 </i>
    <i name="e_0_energy">   -504.42999112 </i>
   </energy>
  </scstep>
  <scstep>
   <time name="dav">    2.18    2.18</time>
   <time name="total">    3.87    3.88</time>
   <energy>
    <i name="e_fr_energy">   -492.10793998 </i>
    <i name="e_wo_entrp">   -492.10741636 </i>
    <i name="e_0_energy">   -492.10767817 </i>
   </energy>
  </scstep>
  <scstep>
   <time name="dav">    2.22    2.22</time>
   <time name="total">    3.93    3.98</time>
   <energy>
    <i name="e_fr_energy">   -490.02890518 </i>
    <i name="e_wo_entrp">   -489.99001500 </i>
    <i name="e_0_energy">   -490.00946009 </i>
   </energy>
  </scstep>
  <scstep>
   <time name="dav">    2.53    2.53</time>
   <time name="total">    4.23    4.31</time>
   <energy>
    <i name="e_fr_energy">   -489.64682382 </i>
    <i name="e_wo_entrp">   -489.60368322 </i>
    <i name="e_0_energy">   -489.62525352 </i>
   </energy>
  </scstep>
  <scstep>
   <time name="dav">    2.46    2.46</time>
   <time name="total">    4.15    4.16</time>
   <energy>
    <i name="e_fr_energy">   -489.95403516 </i>
    <i name="e_wo_entrp">   -489.94960834 </i>
    <i name="e_0_energy">   -489.95182175 </i>
   </energy>
  </scstep>
  <scstep>
   <time name="dav">    2.33    2.33</time>
   <time name="total">    4.03    4.04</time>
   <energy>
    <i name="e_fr_energy">   -491.72657090 </i>
    <i name="e_wo_entrp">   -491.70873503 </i>
    <i name="e_0_energy">   -491.71765297 </i>
   </energy>
  </scstep>
  <scstep>
   <time name="dav">    2.23    2.23</time>
   <time name="total">    3.92    3.93</time>
   <energy>
    <i name="e_fr_energy">   -497.00228125 </i>
    <i name="e_wo_entrp">   -496.99367877 </i>
    <i name="e_0_energy">   -496.99798001 </i>
   </energy>
  </scstep>
  <scstep>
   <time name="dav">    2.27    2.27</time>
   <time name="total">    3.96    3.97</time>
   <energy>
    <i name="e_fr_energy">   -501.39410405 </i>
    <i name="e_wo_entrp">   -501.36955972 </i>
    <i name="e_0_energy">   -501.38183188 </i>
   </energy>
  </scstep>
  <scstep>
   <time name="dav">    2.23    2.23</time>
   <time name="total">    3.91    3.92</time>
   <energy>
    <i name="e_fr_energy">   -503.35872957 </i>
    <i name="e_wo_entrp">   -503.34570817 </i>
    <i name="e_0_energy">   -503.35221887 </i>
   </energy>
  </scstep>
  <scstep>
   <time name="dav">    2.27    2.27</time>
   <time name="total">    3.96    3.97</time>
   <energy>
    <i name="e_fr_energy">   -506.01037833 </i>
    <i name="e_wo_entrp">   -505.99902238 </i>
    <i name="e_0_energy">   -506.00470036 </i>
   </energy>
  </scstep>
  <scstep>
   <time name="dav">    2.19    2.19</time>
   <time name="total">    3.89    3.90</time>
   <energy>
    <i name="e_fr_energy">   -507.93669666 </i>
    <i name="e_wo_entrp">   -507.91306480 </i>
    <i name="e_0_energy">   -507.92488073 </i>
   </energy>
  </scstep>
  <scstep>
   <time name="dav">    2.04    2.04</time>
   <time name="total">    3.73    3.73</time>
   <energy>
    <i name="e_fr_energy">   -509.40567719 </i>
    <i name="e_wo_entrp">   -509.37471352 </i>
    <i name="e_0_energy">   -509.39019535 </i>
   </energy>
  </scstep>
  <scstep>
   <time name="dav">    2.33    2.33</time>
   <time name="total">    4.02    4.03</time>
   <energy>
    <i name="e_fr_energy">   -509.93193001 </i>
    <i name="e_wo_entrp">   -509.90750500 </i>
    <i name="e_0_energy">   -509.91971750 </i>
   </energy>
  </scstep>
  <scstep>
   <time name="dav">    2.12    2.12</time>
   <time name="total">    3.83    3.83</time>
   <energy>
    <i name="e_fr_energy">   -510.96988254 </i>
    <i name="e_wo_entrp">   -510.94004280 </i>
    <i name="e_0_energy">   -510.95496267 </i>
   </energy>
  </scstep>
  <scstep>
   <time name="dav">    2.16    2.16</time>
   <time name="total">    3.83    3.83</time>
   <energy>
    <i name="e_fr_energy">   -511.54871288 </i>
    <i name="e_wo_entrp">   -511.52171239 </i>
    <i name="e_0_energy">   -511.53521264 </i>
   </energy>
  </scstep>
  <scstep>
   <time name="dav">    2.18    2.18</time>
   <time name="total">    3.87    3.88</time>
   <energy>
    <i name="e_fr_energy">   -511.93506560 </i>
    <i name="e_wo_entrp">   -511.90459635 </i>
    <i name="e_0_energy">   -511.91983097 </i>
   </energy>
  </scstep>
  <scstep>
   <time name="dav">    2.49    2.63</time>
   <time name="total">    4.18    4.34</time>
   <energy>
    <i name="e_fr_energy">   -511.99006482 </i>
    <i name="e_wo_entrp">   -511.95918954 </i>
    <i name="e_0_energy">   -511.97462718 </i>
   </energy>
  </scstep>
  <scstep>
   <time name="dav">    2.15    2.15</time>
   <time name="total">    3.84    3.85</time>
   <energy>
    <i name="e_fr_energy">   -512.00595451 </i>
    <i name="e_wo_entrp">   -511.97558429 </i>
    <i name="e_0_energy">   -511.99076940 </i>
   </energy>
  </scstep>
  <scstep>
   <time name="dav">    2.27    2.27</time>
   <time name="total">    3.95    3.95</time>
   <energy>
    <i name="e_fr_energy">   -512.02449613 </i>
    <i name="e_wo_entrp">   -511.99438124 </i>
    <i name="e_0_energy">   -512.00943869 </i>
   </energy>
  </scstep>
  <scstep>
   <time name="dav">    2.23    2.23</time>
   <time name="total">    3.93    3.94</time>
   <energy>
    <i name="e_fr_energy">   -512.04531166 </i>
    <i name="e_wo_entrp">   -512.01533523 </i>
    <i name="e_0_energy">   -512.03032345 </i>
   </energy>
  </scstep>
  <scstep>
   <time name="dav">    2.10    2.10</time>
   <time name="total">    3.81    3.83</time>
   <energy>
    <i name="e_fr_energy">   -512.07072380 </i>
    <i name="e_wo_entrp">   -512.04085171 </i>
    <i name="e_0_energy">   -512.05578775 </i>
   </energy>
  </scstep>
  <scstep>
   <time name="dav">    2.26    2.26</time>
   <time name="total">    3.98    3.99</time>
   <energy>
    <i name="e_fr_energy">   -512.09245197 </i>
    <i name="e_wo_entrp">   -512.06263653 </i>
    <i name="e_0_energy">   -512.07754425 </i>
   </energy>
  </scstep>
  <scstep>
   <time name="dav">    2.10    2.11</time>
   <time name="total">    3.78    3.78</time>
   <energy>
    <i name="e_fr_energy">   -512.11277511 </i>
    <i name="e_wo_entrp">   -512.08300849 </i>
    <i name="e_0_energy">   -512.09789180 </i>
   </energy>
  </scstep>
  <scstep>
   <time name="dav">    2.04    2.04</time>
   <time name="total">    3.72    3.72</time>
   <energy>
    <i name="e_fr_energy">   -512.12329291 </i>
    <i name="e_wo_entrp">   -512.09345912 </i>
    <i name="e_0_energy">   -512.10837602 </i>
   </energy>
  </scstep>
  <scstep>
   <time name="dav">    2.10    2.10</time>
   <time name="total">    3.78    3.78</time>
   <energy>
    <i name="e_fr_energy">   -512.12742993 </i>
    <i name="e_wo_entrp">   -512.09755244 </i>
    <i name="e_0_energy">   -512.11249119 </i>
   </energy>
  </scstep>
  <scstep>
   <time name="dav">    2.33    2.33</time>
   <time name="total">    4.03    4.03</time>
   <energy>
    <i name="e_fr_energy">   -512.13084112 </i>
    <i name="e_wo_entrp">   -512.10097452 </i>
    <i name="e_0_energy">   -512.11590782 </i>
   </energy>
  </scstep>
  <scstep>
   <time name="dav">    1.96    1.96</time>
   <time name="total">    3.64    3.64</time>
   <energy>
    <i name="e_fr_energy">   -512.13401165 </i>
    <i name="e_wo_entrp">   -512.10408297 </i>
    <i name="e_0_energy">   -512.11904731 </i>
   </energy>
  </scstep>
  <scstep>
   <time name="dav">    1.96    1.97</time>
   <time name="total">    3.66    3.66</time>
   <energy>
    <i name="e_fr_energy">   -512.13633477 </i>
    <i name="e_wo_entrp">   -512.10634938 </i>
    <i name="e_0_energy">   -512.12134208 </i>
   </energy>
  </scstep>
  <scstep>
   <time name="dav">    2.11    2.11</time>
   <time name="total">    3.80    3.81</time>
   <energy>
    <i name="e_fr_energy">   -512.13694167 </i>
    <i name="e_wo_entrp">   -512.10698361 </i>
    <i name="e_0_energy">   -512.12196264 </i>
   </energy>
  </scstep>
  <scstep>
   <time name="dav">    1.96    1.96</time>
   <time name="total">    3.66    3.66</time>
   <energy>
    <i name="e_fr_energy">   -512.13763739 </i>
    <i name="e_wo_entrp">   -512.10768535 </i>
    <i name="e_0_energy">   -512.12266137 </i>
   </energy>
  </scstep>
  <scstep>
   <time name="dav">    1.89    1.89</time>
   <time name="total">    3.57    3.57</time>
   <energy>
    <i name="e_fr_energy">   -512.13808873 </i>
    <i name="e_wo_entrp">   -512.10812479 </i>
    <i name="e_0_energy">   -512.12310676 </i>
   </energy>
  </scstep>
  <scstep>
   <time name="dav">    1.83    1.86</time>
   <time name="total">    3.51    3.54</time>
   <energy>
    <i name="e_fr_energy">   -512.13828865 </i>
    <i name="e_wo_entrp">   -512.10831399 </i>
    <i name="e_0_energy">   -512.12330132 </i>
   </energy>
  </scstep>
  <scstep>
   <time name="dav">    1.76    1.76</time>
   <time name="total">    3.45    3.45</time>
   <energy>
    <i name="e_fr_energy">   -512.13840411 </i>
    <i name="e_wo_entrp">   -512.10843830 </i>
    <i name="e_0_energy">   -512.12342121 </i>
   </energy>
  </scstep>
  <scstep>
   <time name="dav">    1.62    1.62</time>
   <time name="total">    3.32    3.33</time>
   <energy>
    <i name="e_fr_energy">   -512.13844825 </i>
    <i name="e_wo_entrp">   -512.10848452 </i>
    <i name="e_0_energy">   -512.12346638 </i>
   </energy>
  </scstep>
  <scstep>
   <time name="dav">    1.59    1.60</time>
   <time name="total">    3.28    3.28</time>
   <energy>
    <i name="e_fr_energy">   -512.13847976 </i>
    <i name="e_wo_entrp">   -512.10851773 </i>
    <i name="e_0_energy">   -512.12349875 </i>
   </energy>
  </scstep>
  <scstep>
   <time name="dav">    1.65    1.65</time>
   <time name="total">    3.33    3.33</time>
   <energy>
    <i name="e_fr_energy">   -512.13852916 </i>
    <i name="e_wo_entrp">   -512.10856828 </i>
    <i name="e_0_energy">   -512.12354872 </i>
   </energy>
  </scstep>
  <scstep>
   <time name="dav">    1.58    1.59</time>
   <time name="total">    3.29    3.29</time>
   <energy>
    <i name="e_fr_energy">   -512.13855571 </i>
    <i name="e_wo_entrp">   -512.10859206 </i>
    <i name="e_0_energy">   -512.12357388 </i>
   </energy>
  </scstep>
  <scstep>
   <time name="dav">    1.42    1.42</time>
   <time name="total">    3.12    3.12</time>
   <energy>
    <i name="e_fr_energy">   -512.13856378 </i>
    <i name="e_wo_entrp">   -512.10860126 </i>
    <i name="e_0_energy">   -512.12358252 </i>
   </energy>
  </scstep>
  <scstep>
   <time name="dav">    1.48    1.48</time>
   <time name="total">    3.15    3.15</time>
   <energy>
    <i name="e_fr_energy">   -512.13857281 </i>
    <i name="e_wo_entrp">   -512.10860973 </i>
    <i name="e_0_energy">   -512.12359127 </i>
   </energy>
  </scstep>
  <scstep>
   <time name="dav">    1.55    1.55</time>
   <time name="total">    3.25    3.25</time>
   <energy>
    <i name="e_fr_energy">   -512.13857960 </i>
    <i name="e_wo_entrp">   -512.10861747 </i>
    <i name="e_0_energy">   -512.12359854 </i>
   </energy>
  </scstep>
  <scstep>
   <time name="dav">    1.38    1.38</time>
   <time name="total">    3.08    3.08</time>
   <energy>
    <i name="e_fr_energy">   -512.13858140 </i>
    <i name="e_wo_entrp">   -512.10861949 </i>
    <i name="e_0_energy">   -512.12360045 </i>
   </energy>
  </scstep>
  <scstep>
   <time name="dav">    1.24    1.24</time>
   <time name="total">    2.33    2.33</time>
   <energy>
    <i name="alphaZ">   1138.74096316 </i>
    <i name="ewald"> 129565.03039835 </i>
    <i name="hartreedc">-169643.23521816 </i>
    <i name="XCdc">   1266.56489558 </i>
    <i name="pawpsdc">  42943.22755664 </i>
    <i name="pawaedc"> -42237.15010411 </i>
    <i name="eentropy">     -0.02996291 </i>
    <i name="bandstr">  -6057.98075898 </i>
    <i name="atom">  42512.69364877 </i>
    <i name="e_fr_energy">   -512.13858166 </i>
    <i name="e_wo_entrp">   -512.10861874 </i>
    <i name="e_0_energy">   -512.12360020 </i>
   </energy>
  </scstep>
  <structure>
   <crystal>
    <varray name="basis" >
     <v>      11.59819984       0.00000000       0.00000000 </v>
     <v>      -5.79909992      10.04433570       0.00000000 </v>
     <v>       0.00000000       0.00000000      21.04820061 </v>
    </varray>
    <i name="volume">   2452.03565684 </i>
    <varray name="rec_basis" >
     <v>       0.08622028       0.04977930       0.00000000 </v>
     <v>       0.00000000       0.09955860       0.00000000 </v>
     <v>       0.00000000       0.00000000       0.04751000 </v>
    </varray>
   </crystal>
   <varray name="positions" >
    <v>       0.00000000       0.00000000       0.45993000 </v>
    <v>       0.22222000       0.11111000       0.30996000 </v>
    <v>       0.33333000       0.00000000       0.45993000 </v>
    <v>       0.55556000       0.11111000       0.30996000 </v>
    <v>       0.66667000       0.00000000       0.45993000 </v>
    <v>       0.88889000       0.11111000       0.30996000 </v>
    <v>       0.00000000       0.33333000       0.45993000 </v>
    <v>       0.22222000       0.44444000       0.30996000 </v>
    <v>       0.33333000       0.33333000       0.45993000 </v>
    <v>       0.55556000       0.44444000       0.30996000 </v>
    <v>       0.66667000       0.33333000       0.45993000 </v>
    <v>       0.88889000       0.44444000       0.30996000 </v>
    <v>       0.00000000       0.66667000       0.45993000 </v>
    <v>       0.22222000       0.77778000       0.30996000 </v>
    <v>       0.33333000       0.66667000       0.45993000 </v>
    <v>       0.55556000       0.77778000       0.30996000 </v>
    <v>       0.66667000       0.66667000       0.45993000 </v>
    <v>       0.88889000       0.77778000       0.30996000 </v>
    <v>       0.00000000       0.00000000       0.57241000 </v>
    <v>       0.11111000       0.22222000       0.27247000 </v>
    <v>       0.22222000       0.11111000       0.42244000 </v>
    <v>       0.11111000       0.22222000       0.49742000 </v>
    <v>       0.00000000       0.00000000       0.34745000 </v>
    <v>       0.33333000       0.00000000       0.57241000 </v>
    <v>       0.44444000       0.22222000       0.27247000 </v>
    <v>       0.55556000       0.11111000       0.42244000 </v>
    <v>       0.44444000       0.22222000       0.49742000 </v>
    <v>       0.33333000       0.00000000       0.34745000 </v>
    <v>       0.66667000       0.00000000       0.57241000 </v>
    <v>       0.77778000       0.22222000       0.27247000 </v>
    <v>       0.88889000       0.11111000       0.42244000 </v>
    <v>       0.77778000       0.22222000       0.49742000 </v>
    <v>       0.66667000       0.00000000       0.34745000 </v>
    <v>       0.00000000       0.33333000       0.57241000 </v>
    <v>       0.11111000       0.55556000       0.27247000 </v>
    <v>       0.22222000       0.44444000       0.42244000 </v>
    <v>       0.11111000       0.55556000       0.49742000 </v>
    <v>       0.00000000       0.33333000       0.34745000 </v>
    <v>       0.33333000       0.33333000       0.57241000 </v>
    <v>       0.44444000       0.55556000       0.27247000 </v>
    <v>       0.55556000       0.44444000       0.42244000 </v>
    <v>       0.44444000       0.55556000       0.49742000 </v>
    <v>       0.33333000       0.33333000       0.34745000 </v>
    <v>       0.66667000       0.33333000       0.57241000 </v>
    <v>       0.77778000       0.55556000       0.27247000 </v>
    <v>       0.88889000       0.44444000       0.42244000 </v>
    <v>       0.77778000       0.55556000       0.49742000 </v>
    <v>       0.66667000       0.33333000       0.34745000 </v>
    <v>       0.00000000       0.66667000       0.57241000 </v>
    <v>       0.11111000       0.88889000       0.27247000 </v>
    <v>       0.22222000       0.77778000       0.42244000 </v>
    <v>       0.11111000       0.88889000       0.49742000 </v>
    <v>       0.00000000       0.66667000       0.34745000 </v>
    <v>       0.33333000       0.66667000       0.57241000 </v>
    <v>       0.44444000       0.88889000       0.27247000 </v>
    <v>       0.55556000       0.77778000       0.42244000 </v>
    <v>       0.44444000       0.88889000       0.49742000 </v>
    <v>       0.33333000       0.66667000       0.34745000 </v>
    <v>       0.66667000       0.66667000       0.57241000 </v>
    <v>       0.77778000       0.88889000       0.27247000 </v>
    <v>       0.88889000       0.77778000       0.42244000 </v>
    <v>       0.77778000       0.88889000       0.49742000 </v>
    <v>       0.66667000       0.66667000       0.34745000 </v>
    <v>       0.49823000       0.50828000       0.57211000 </v>
    <v>       0.17351000       0.18288000       0.57211000 </v>
    <v>       0.50907000       0.16924000       0.57211000 </v>
    <v>       0.82607000       0.50227000       0.57211000 </v>
    <v>       0.83547000       0.83306000       0.57211000 </v>
    <v>       0.50468000       0.83649000       0.57211000 </v>
    <v>       0.15481000       0.48807000       0.57211000 </v>
   </varray>
  </structure>
  <varray name="forces" >
   <v>       1.65803977      -1.16081232      -1.14855243 </v>
   <v>       0.02011125      -0.13169765      -0.06540642 </v>
   <v>      -1.76694649      -1.10222090       0.57309274 </v>
   <v>       0.00444499       0.01018631      -0.01387842 </v>
   <v>       0.28388856       2.26559976      -0.16707587 </v>
   <v>      -0.01684367      -0.00121297      -0.07246716 </v>
   <v>      -2.02203578      -1.35605512      -0.64089403 </v>
   <v>      -0.08245564      -0.04228310      -0.25790908 </v>
   <v>       0.41783056      -0.28458256      -2.29468281 </v>
   <v>       0.10279181      -0.04310506      -0.23588036 </v>
   <v>       1.63294150      -0.91484264      -1.73677626 </v>
   <v>      -0.01519905      -0.00415515      -0.01836539 </v>
   <v>       0.17310336       2.11156840       0.44997516 </v>
   <v>      -0.11047510       0.06437217      -0.07424402 </v>
   <v>      -0.24178340       0.07592629      -1.51898605 </v>
   <v>       0.01127504       0.09514496      -0.23473090 </v>
   <v>       0.46309042       0.25026040      -1.90686674 </v>
   <v>       0.10916734       0.04197629      -0.03626774 </v>
   <v>       0.30045016       1.16013011       0.92822802 </v>
   <v>       0.01361131       0.04697602      -0.04162890 </v>
   <v>       0.05795180       0.57034317      -0.38549693 </v>
   <v>      -0.68998346       0.30719051      -0.69869423 </v>
   <v>      -0.00674780       0.01158556       0.04436181 </v>
   <v>       2.12247096       3.20972151       0.25025658 </v>
   <v>      -0.02267102       0.04850631      -0.04368971 </v>
   <v>      -0.12498905      -0.23257507      -0.48663494 </v>
   <v>       0.22414087       0.19559367       0.49606805 </v>
   <v>       0.00132586      -0.00694112      -0.01598402 </v>
   <v>      -1.19880130      -2.17293078       0.65455085 </v>
   <v>       0.01333247      -0.00563283      -0.05307540 </v>
   <v>       0.30057198      -0.10809043      -0.21046478 </v>
   <v>       0.22663883      -0.04851899      -1.36219453 </v>
   <v>       0.02169267      -0.07939621       0.06886781 </v>
   <v>       0.22056489       0.23974911       0.89438613 </v>
   <v>       0.06080352      -0.01090482      -0.04370925 </v>
   <v>       0.25452994       0.01525603      -0.22342453 </v>
   <v>       0.31934919       0.21685042       0.12064153 </v>
   <v>       0.08842557       0.02876151       0.08896783 </v>
   <v>       1.42632522       2.51513485       1.57355887 </v>
   <v>      -0.00560496      -0.00541612      -0.03162234 </v>
   <v>      -0.13841613       0.04394123      -0.20357962 </v>
   <v>      -0.80297653       0.32370024      -1.07186860 </v>
   <v>      -0.00053367       0.05733707       0.27820463 </v>
   <v>       0.34737711       0.50359849       1.86767701 </v>
   <v>      -0.05063061      -0.01354015      -0.04495271 </v>
   <v>       0.13589399       0.22554248      -0.44237266 </v>
   <v>      -0.91235655       0.27197762      -1.00876035 </v>
   <v>      -0.06327549       0.03724673       0.08369732 </v>
   <v>      -1.88762283      -2.77002133       0.38552426 </v>
   <v>       0.00277780       0.00490260      -0.06161177 </v>
   <v>       0.54115863      -0.32252762      -0.20766610 </v>
   <v>       0.04365061       0.00469756      -1.53146151 </v>
   <v>       0.01392427      -0.00615783      -0.01286805 </v>
   <v>      -0.13524761      -0.40719780       0.94650983 </v>
   <v>       0.03421545      -0.04580240      -0.04363623 </v>
   <v>       0.07217321      -0.23393760      -0.25666139 </v>
   <v>       0.07207835      -0.42779784       0.20543741 </v>
   <v>       0.06048266      -0.04259933       0.24812714 </v>
   <v>       0.02910430       0.61710148       1.19719314 </v>
   <v>      -0.03430764      -0.02693331      -0.04360440 </v>
   <v>      -0.39895126      -0.33868168      -0.46601221 </v>
   <v>      -0.07590963      -0.00914535       0.16361917 </v>
   <v>      -0.05200379      -0.04063373       0.23202203 </v>
   <v>       0.37322183      -1.29606708       1.85931163 </v>
   <v>      -1.27099171      -3.72395707       1.76478593 </v>
   <v>      -2.63236377      -3.02546440       0.23540531 </v>
   <v>       2.07807826       1.92253871       1.54659391 </v>
   <v>       0.08997693       0.12568385       0.70975531 </v>
   <v>      -0.29397773       0.79937947       0.77034698 </v>
   <v>       0.63111842       2.02335748       0.77749241 </v>
  </varray>
  <varray name="stress" >
   <v>      -3.78453080      -7.90713881      -1.04003914 </v>
   <v>      -7.90714523     -13.39098060       0.31035736 </v>
   <v>      -1.04007253       0.31045957      24.84095567 </v>
  </varray>
  <energy>
   <i name="e_fr_energy">   -512.13858166 </i>
   <i name="e_wo_entrp">   -512.10861874 </i>
   <i name="e_0_energy">   -512.12360020 </i>
  </energy>
  <time name="totalsc">  195.19  196.00</time>
 </calculation>
 <calculation>
  <scstep>
   <time name="dav">    1.63    1.63</time>
   <time name="total">    3.34    3.47</time>
   <energy>
    <i name="alphaZ">   1138.74096316 </i>
    <i name="ewald"> 128780.32199805 </i>
    <i name="hartreedc">-168847.16616038 </i>
    <i name="XCdc">   1265.97255702 </i>
    <i name="pawpsdc">  42943.22447810 </i>
    <i name="pawaedc"> -42237.14708049 </i>
    <i name="eentropy">     -0.03229193 </i>
    <i name="bandstr">  -6060.12055510 </i>
    <i name="atom">  42512.69364877 </i>
    <i name="e_fr_energy">   -503.51244280 </i>
    <i name="e_wo_entrp">   -503.48015087 </i>
    <i name="e_0_energy">   -503.49629683 </i>
   </energy>
  </scstep>
  <scstep>
   <time name="dav">    2.23    2.23</time>
   <time name="total">    3.91    3.92</time>
   <energy>
    <i name="e_fr_energy">   -512.93943368 </i>
    <i name="e_wo_entrp">   -512.92786493 </i>
    <i name="e_0_energy">   -512.93364930 </i>
   </energy>
  </scstep>
  <scstep>
   <time name="dav">    2.54    2.54</time>
   <time name="total">    4.22    4.23</time>
   <energy>
    <i name="e_fr_energy">   -513.04488982 </i>
    <i name="e_wo_entrp">   -513.01014142 </i>
    <i name="e_0_energy">   -513.02751562 </i>
   </energy>
  </scstep>
  <scstep>
   <time name="dav">    2.33    2.34</time>
   <time name="total">    4.03    4.03</time>
   <energy>
    <i name="e_fr_energy">   -514.82219875 </i>
    <i name="e_wo_entrp">   -514.73500172 </i>
    <i name="e_0_energy">   -514.77860024 </i>
   </energy>
  </scstep>
  <scstep>
   <time name="dav">    2.22    2.22</time>
   <time name="total">    3.90    3.91</time>
   <energy>
    <i name="e_fr_energy">   -512.63670273 </i>
    <i name="e_wo_entrp">   -512.60925949 </i>
    <i name="e_0_energy">   -512.62298111 </i>
   </energy>
  </scstep>
  <scstep>
   <time name="dav">    2.44    2.44</time>
   <time name="total">    4.14    4.20</time>
   <energy>
    <i name="e_fr_energy">   -513.31958124 </i>
    <i name="e_wo_entrp">   -513.30056920 </i>
    <i name="e_0_energy">   -513.31007522 </i>
   </energy>
  </scstep>
  <scstep>
   <time name="dav">    2.35    2.35</time>
   <time name="total">    4.04    4.05</time>
   <energy>
    <i name="e_fr_energy">   -513.16146705 </i>
    <i name="e_wo_entrp">   -513.14459754 </i>
    <i name="e_0_energy">   -513.15303230 </i>
   </energy>
  </scstep>
  <scstep>
   <time name="dav">    2.23    2.23</time>
   <time name="total">    3.92    3.92</time>
   <energy>
    <i name="e_fr_energy">   -513.25830131 </i>
    <i name="e_wo_entrp">   -513.25087429 </i>
    <i name="e_0_energy">   -513.25458780 </i>
   </energy>
  </scstep>
  <scstep>
   <time name="dav">    2.34    2.34</time>
   <time name="total">    4.04    4.05</time>
   <energy>
    <i name="e_fr_energy">   -513.11588969 </i>
    <i name="e_wo_entrp">   -513.10971835 </i>
    <i name="e_0_energy">   -513.11280402 </i>
   </energy>
  </scstep>
  <scstep>
   <time name="dav">    2.22    2.22</time>
   <time name="total">    3.91    3.91</time>
   <energy>
    <i name="e_fr_energy">   -513.01091512 </i>
    <i name="e_wo_entrp">   -513.00820305 </i>
    <i name="e_0_energy">   -513.00955908 </i>
   </energy>
  </scstep>
  <scstep>
   <time name="dav">    2.40    2.40</time>
   <time name="total">    4.12    4.13</time>
   <energy>
    <i name="e_fr_energy">   -512.99391358 </i>
    <i name="e_wo_entrp">   -512.99347365 </i>
    <i name="e_0_energy">   -512.99369361 </i>
   </energy>
  </scstep>
  <scstep>
   <time name="dav">    2.27    2.27</time>
   <time name="total">    3.97    3.98</time>
   <energy>
    <i name="e_fr_energy">   -512.94758804 </i>
    <i name="e_wo_entrp">   -512.94721313 </i>
    <i name="e_0_energy">   -512.94740058 </i>
   </energy>
  </scstep>
  <scstep>
   <time name="dav">    2.34    2.35</time>
   <time name="total">    4.04    4.04</time>
   <energy>
    <i name="e_fr_energy">   -512.91722445 </i>
    <i name="e_wo_entrp">   -512.91691627 </i>
    <i name="e_0_energy">   -512.91707036 </i>
   </energy>
  </scstep>
  <scstep>
   <time name="dav">    2.42    2.42</time>
   <time name="total">    4.14    4.15</time>
   <energy>
    <i name="e_fr_energy">   -512.89649273 </i>
    <i name="e_wo_entrp">   -512.89624430 </i>
    <i name="e_0_energy">   -512.89636851 </i>
   </energy>
  </scstep>
  <scstep>
   <time name="dav">    2.29    2.30</time>
   <time name="total">    4.01    4.03</time>
   <energy>
    <i name="e_fr_energy">   -512.88719991 </i>
    <i name="e_wo_entrp">   -512.88692716 </i>
    <i name="e_0_energy">   -512.88706354 </i>
   </energy>
  </scstep>
  <scstep>
   <time name="dav">    2.53    2.53</time>
   <time name="total">    4.21    4.21</time>
   <energy>
    <i name="e_fr_energy">   -512.89409525 </i>
    <i name="e_wo_entrp">   -512.89379369 </i>
    <i name="e_0_energy">   -512.89394447 </i>
   </energy>
  </scstep>
  <scstep>
   <time name="dav">    2.33    2.33</time>
   <time name="total">    4.02    4.02</time>
   <energy>
    <i name="e_fr_energy">   -512.89818725 </i>
    <i name="e_wo_entrp">   -512.89788186 </i>
    <i name="e_0_energy">   -512.89803456 </i>
   </energy>
  </scstep>
  <scstep>
   <time name="dav">    2.23    2.23</time>
   <time name="total">    3.91    3.91</time>
   <energy>
    <i name="e_fr_energy">   -512.89175707 </i>
    <i name="e_wo_entrp">   -512.89143435 </i>
    <i name="e_0_energy">   -512.89159571 </i>
   </energy>
  </scstep>
  <scstep>
   <time name="dav">    2.38    2.38</time>
   <time name="total">    4.10    4.10</time>
   <energy>
    <i name="e_fr_energy">   -512.88937102 </i>
    <i name="e_wo_entrp">   -512.88899332 </i>
    <i name="e_0_energy">   -512.88918217 </i>
   </energy>
  </scstep>
  <scstep>
   <time name="dav">    2.25    2.25</time>
   <time name="total">    3.93    3.93</time>
   <energy>
    <i name="e_fr_energy">   -512.88950844 </i>
    <i name="e_wo_entrp">   -512.88904435 </i>
    <i name="e_0_energy">   -512.88927639 </i>
   </energy>
  </scstep>
  <scstep>
   <time name="dav">    2.40    2.40</time>
   <time name="total">    4.11    4.11</time>
   <energy>
    <i name="e_fr_energy">   -512.89014029 </i>
    <i name="e_wo_entrp">   -512.88958219 </i>
    <i name="e_0_energy">   -512.88986124 </i>
   </energy>
  </scstep>
  <scstep>
   <time name="dav">    2.34    2.34</time>
   <time name="total">    4.02    4.03</time>
   <energy>
    <i name="e_fr_energy">   -512.89062060 </i>
    <i name="e_wo_entrp">   -512.89006175 </i>
    <i name="e_0_energy">   -512.89034118 </i>
   </energy>
  </scstep>
  <scstep>
   <time name="dav">    2.53    2.53</time>
   <time name="total">    4.23    4.24</time>
   <energy>
    <i name="e_fr_energy">   -512.89151541 </i>
    <i name="e_wo_entrp">   -512.89093057 </i>
    <i name="e_0_energy">   -512.89122299 </i>
   </energy>
  </scstep>
  <scstep>
   <time name="dav">    2.41    2.41</time>
   <time name="total">    4.12    4.13</time>
   <energy>
    <i name="e_fr_energy">   -512.89010874 </i>
    <i name="e_wo_entrp">   -512.88936349 </i>
    <i name="e_0_energy">   -512.88973612 </i>
   </energy>
  </scstep>
  <scstep>
   <time name="dav">    2.22    2.22</time>
   <time name="total">    3.91    3.91</time>
   <energy>
    <i name="e_fr_energy">   -512.88979027 </i>
    <i name="e_wo_entrp">   -512.88898375 </i>
    <i name="e_0_energy">   -512.88938701 </i>
   </energy>
  </scstep>
  <scstep>
   <time name="dav">    2.48    2.48</time>
   <time name="total">    4.18    4.18</time>
   <energy>
    <i name="e_fr_energy">   -512.89127420 </i>
    <i name="e_wo_entrp">   -512.89059006 </i>
    <i name="e_0_energy">   -512.89093213 </i>
   </energy>
  </scstep>
  <scstep>
   <time name="dav">    2.36    2.37</time>
   <time name="total">    4.04    4.05</time>
   <energy>
    <i name="e_fr_energy">   -512.89371020 </i>
    <i name="e_wo_entrp">   -512.89317350 </i>
    <i name="e_0_energy">   -512.89344185 </i>
   </energy>
  </scstep>
  <scstep>
   <time name="dav">    2.24    2.24</time>
   <time name="total">    3.92    3.93</time>
   <energy>
    <i name="e_fr_energy">   -512.89271042 </i>
    <i name="e_wo_entrp">   -512.89214353 </i>
    <i name="e_0_energy">   -512.89242697 </i>
   </energy>
  </scstep>
  <scstep>
   <time name="dav">    2.53    2.53</time>
   <time name="total">    4.21    4.21</time>
   <energy>
    <i name="e_fr_energy">   -512.89406098 </i>
    <i name="e_wo_entrp">   -512.89359579 </i>
    <i name="e_0_energy">   -512.89382838 </i>
   </energy>
  </scstep>
  <scstep>
   <time name="dav">    2.30    2.30</time>
   <time name="total">    3.98    3.98</time>
   <energy>
    <i name="e_fr_energy">   -512.90994323 </i>
    <i name="e_wo_entrp">   -512.90948427 </i>
    <i name="e_0_energy">   -512.90971375 </i>
   </energy>
  </scstep>
  <scstep>
   <time name="dav">    2.36    2.36</time>
   <time name="total">    4.06    4.06</time>
   <energy>
    <i name="e_fr_energy">   -512.94991918 </i>
    <i name="e_wo_entrp">   -512.94948322 </i>
    <i name="e_0_energy">   -512.94970120 </i>
   </energy>
  </scstep>
  <scstep>
   <time name="dav">    2.38    2.38</time>
   <time name="total">    4.07    4.08</time>
   <energy>
    <i name="e_fr_energy">   -512.93420109 </i>
    <i name="e_wo_entrp">   -512.93373935 </i>
    <i name="e_0_energy">   -512.93397022 </i>
   </energy>
  </scstep>
  <scstep>
   <time name="dav">    2.45    2.45</time>
   <time name="total">    4.14    4.14</time>
   <energy>
    <i name="e_fr_energy">   -512.93160601 </i>
    <i name="e_wo_entrp">   -512.93111436 </i>
    <i name="e_0_energy">   -512.93136019 </i>
   </energy>
  </scstep>
  <scstep>
   <time name="dav">    2.30    2.30</time>
   <time name="total">    3.99    3.99</time>
   <energy>
    <i name="e_fr_energy">   -512.93543800 </i>
    <i name="e_wo_entrp">   -512.93502503 </i>
    <i name="e_0_energy">   -512.93523152 </i>
   </energy>
  </scstep>
  <scstep>
   <time name="dav">    2.26    2.26</time>
   <time name="total">    3.94    3.94</time>
   <energy>
    <i name="e_fr_energy">   -512.92029533 </i>
    <i name="e_wo_entrp">   -512.91976144 </i>
    <i name="e_0_energy">   -512.92002839 </i>
   </energy>
  </scstep>
  <scstep>
   <time name="dav">    2.40    2.40</time>
   <time name="total">    4.10    4.10</time>
   <energy>
    <i name="e_fr_energy">   -512.91542424 </i>
    <i name="e_wo_entrp">   -512.91472888 </i>
    <i name="e_0_energy">   -512.91507656 </i>
   </energy>
  </scstep>
  <scstep>
   <time name="dav">    2.41    2.41</time>
   <time name="total">    4.09    4.10</time>
   <energy>
    <i name="e_fr_energy">   -512.91707753 </i>
    <i name="e_wo_entrp">   -512.91632204 </i>
    <i name="e_0_energy">   -512.91669978 </i>
   </energy>
  </scstep>
  <scstep>
   <time name="dav">    2.56    2.56</time>
   <time name="total">    4.27    4.28</time>
   <energy>
    <i name="e_fr_energy">   -512.91767416 </i>
    <i name="e_wo_entrp">   -512.91690335 </i>
    <i name="e_0_energy">   -512.91728875 </i>
   </energy>
  </scstep>
  <scstep>
   <time name="dav">    2.37    2.37</time>
   <time name="total">    4.07    4.07</time>
   <energy>
    <i name="e_fr_energy">   -512.91727102 </i>
    <i name="e_wo_entrp">   -512.91645713 </i>
    <i name="e_0_energy">   -512.91686408 </i>
   </energy>
  </scstep>
  <scstep>
   <time name="dav">    2.46    2.46</time>
   <time name="total">    4.14    4.16</time>
   <energy>
    <i name="e_fr_energy">   -512.91690822 </i>
    <i name="e_wo_entrp">   -512.91612479 </i>
    <i name="e_0_energy">   -512.91651651 </i>
   </energy>
  </scstep>
  <scstep>
   <time name="dav">    2.22    2.22</time>
   <time name="total">    3.91    3.91</time>
   <energy>
    <i name="e_fr_energy">   -512.91799510 </i>
    <i name="e_wo_entrp">   -512.91722593 </i>
    <i name="e_0_energy">   -512.91761052 </i>
   </energy>
  </scstep>
  <scstep>
   <time name="dav">    2.21    2.22</time>
   <time name="total">    3.91    3.91</time>
   <energy>
    <i name="e_fr_energy">   -512.91734613 </i>
    <i name="e_wo_entrp">   -512.91656213 </i>
    <i name="e_0_energy">   -512.91695413 </i>
   </energy>
  </scstep>
  <scstep>
   <time name="dav">    2.25    2.25</time>
   <time name="total">    3.94    3.95</time>
   <energy>
    <i name="e_fr_energy">   -512.91680684 </i>
    <i name="e_wo_entrp">   -512.91593887 </i>
    <i name="e_0_energy">   -512.91637286 </i>
   </energy>
  </scstep>
  <scstep>
   <time name="dav">    2.30    2.30</time>
   <time name="total">    3.99    4.01</time>
   <energy>
    <i name="e_fr_energy">   -512.91432920 </i>
    <i name="e_wo_entrp">   -512.91333030 </i>
    <i name="e_0_energy">   -512.91382975 </i>
   </energy>
  </scstep>
  <scstep>
   <time name="dav">    2.37    2.37</time>
   <time name="total">    4.06    4.08</time>
   <energy>
    <i name="e_fr_energy">   -512.91231295 </i>
    <i name="e_wo_entrp">   -512.91126261 </i>
    <i name="e_0_energy">   -512.91178778 </i>
   </energy>
  </scstep>
  <scstep>
   <time name="dav">    2.25    2.26</time>
   <time name="total">    3.97    3.99</time>
   <energy>
    <i name="e_fr_energy">   -512.91190919 </i>
    <i name="e_wo_entrp">   -512.91093728 </i>
    <i name="e_0_energy">   -512.91142323 </i>
   </energy>
  </scstep>
  <scstep>
   <time name="dav">    2.52    2.52</time>
   <time name="total">    4.21    4.22</time>
   <energy>
    <i name="e_fr_energy">   -512.91422369 </i>
    <i name="e_wo_entrp">   -512.91326505 </i>
    <i name="e_0_energy">   -512.91374437 </i>
   </energy>
  </scstep>
  <scstep>
   <time name="dav">    2.04    2.04</time>
   <time name="total">    3.76    3.76</time>
   <energy>
    <i name="e_fr_energy">   -512.91429090 </i>
    <i name="e_wo_entrp">   -512.91333415 </i>
    <i name="e_0_energy">   -512.91381253 </i>
   </energy>
  </scstep>
  <scstep>
   <time name="dav">    2.77    2.77</time>
   <time name="total">    4.47    4.47</time>
   <energy>
    <i name="e_fr_energy">   -512.91428498 </i>
    <i name="e_wo_entrp">   -512.91332943 </i>
    <i name="e_0_energy">   -512.91380721 </i>
   </energy>
  </scstep>
  <scstep>
   <time name="dav">    2.23    2.23</time>
   <time name="total">    3.93    3.93</time>
   <energy>
    <i name="e_fr_energy">   -512.91424090 </i>
    <i name="e_wo_entrp">   -512.91328416 </i>
    <i name="e_0_energy">   -512.91376253 </i>
   </energy>
  </scstep>
  <scstep>
   <time name="dav">    2.18    2.18</time>
   <time name="total">    3.88    3.89</time>
   <energy>
    <i name="e_fr_energy">   -512.91427353 </i>
    <i name="e_wo_entrp">   -512.91333848 </i>
    <i name="e_0_energy">   -512.91380601 </i>
   </energy>
  </scstep>
  <scstep>
   <time name="dav">    2.25    2.25</time>
   <time name="total">    3.94    3.95</time>
   <energy>
    <i name="e_fr_energy">   -512.91493386 </i>
    <i name="e_wo_entrp">   -512.91402351 </i>
    <i name="e_0_energy">   -512.91447869 </i>
   </energy>
  </scstep>
  <scstep>
   <time name="dav">    2.25    2.25</time>
   <time name="total">    3.96    3.97</time>
   <energy>
    <i name="e_fr_energy">   -512.91422183 </i>
    <i name="e_wo_entrp">   -512.91329926 </i>
    <i name="e_0_energy">   -512.91376054 </i>
   </energy>
  </scstep>
  <scstep>
   <time name="dav">    2.22    2.22</time>
   <time name="total">    3.93    3.94</time>
   <energy>
    <i name="e_fr_energy">   -512.91378838 </i>
    <i name="e_wo_entrp">   -512.91287438 </i>
    <i name="e_0_energy">   -512.91333138 </i>
   </energy>
  </scstep>
  <scstep>
   <time name="dav">    2.38    2.38</time>
   <time name="total">    4.08    4.09</time>
   <energy>
    <i name="e_fr_energy">   -512.91370226 </i>
    <i name="e_wo_entrp">   -512.91278813 </i>
    <i name="e_0_energy">   -512.91324520 </i>
   </energy>
  </scstep>
  <scstep>
   <time name="dav">    2.45    2.45</time>
   <time name="total">    4.16    4.17</time>
   <energy>
    <i name="e_fr_energy">   -512.91367053 </i>
    <i name="e_wo_entrp">   -512.91275315 </i>
    <i name="e_0_energy">   -512.91321184 </i>
   </energy>
  </scstep>
  <scstep>
   <time name="dav">    2.25    2.25</time>
   <time name="total">    3.95    3.95</time>
   <energy>
    <i name="e_fr_energy">   -512.91368867 </i>
    <i name="e_wo_entrp">   -512.91276548 </i>
    <i name="e_0_energy">   -512.91322707 </i>
   </energy>
  </scstep>
  <scstep>
   <time name="dav">    2.22    2.22</time>
   <time name="total">    3.91    3.91</time>
   <energy>
    <i name="e_fr_energy">   -512.91368118 </i>
    <i name="e_wo_entrp">   -512.91275669 </i>
    <i name="e_0_energy">   -512.91321893 </i>
   </energy>
  </scstep>
  <scstep>
   <time name="dav">    2.37    2.37</time>
   <time name="total">    4.06    4.07</time>
   <energy>
    <i name="e_fr_energy">   -512.91367495 </i>
    <i name="e_wo_entrp">   -512.91274487 </i>
    <i name="e_0_energy">   -512.91320991 </i>
   </energy>
  </scstep>
  <scstep>
   <time name="dav">    2.18    2.18</time>
   <time name="total">    3.87    3.87</time>
   <energy>
    <i name="e_fr_energy">   -512.91362732 </i>
    <i name="e_wo_entrp">   -512.91268586 </i>
    <i name="e_0_energy">   -512.91315659 </i>
   </energy>
  </scstep>
  <scstep>
   <time name="dav">    2.29    2.29</time>
   <time name="total">    3.99    4.00</time>
   <energy>
    <i name="e_fr_energy">   -512.91363296 </i>
    <i name="e_wo_entrp">   -512.91268121 </i>
    <i name="e_0_energy">   -512.91315708 </i>
   </energy>
  </scstep>
  <scstep>
   <time name="dav">    2.10    2.10</time>
   <time name="total">    3.82    3.82</time>
   <energy>
[...]
   <time name="total">    3.07    3.08</time>
   <energy>
    <i name="e_fr_energy">   -517.08643954 </i>
    <i name="e_wo_entrp">   -517.08643954 </i>
    <i name="e_0_energy">   -517.08643954 </i>
   </energy>
  </scstep>
  <scstep>
   <time name="dav">    1.44    1.44</time>
   <time name="total">    3.18    3.18</time>
   <energy>
    <i name="e_fr_energy">   -517.08645610 </i>
    <i name="e_wo_entrp">   -517.08645610 </i>
    <i name="e_0_energy">   -517.08645610 </i>
   </energy>
  </scstep>
  <scstep>
   <time name="dav">    1.35    1.35</time>
   <time name="total">    3.04    3.05</time>
   <energy>
    <i name="e_fr_energy">   -517.08647000 </i>
    <i name="e_wo_entrp">   -517.08647000 </i>
    <i name="e_0_energy">   -517.08647000 </i>
   </energy>
  </scstep>
  <scstep>
   <time name="dav">    1.34    1.34</time>
   <time name="total">    3.02    3.03</time>
   <energy>
    <i name="e_fr_energy">   -517.08648012 </i>
    <i name="e_wo_entrp">   -517.08648012 </i>
    <i name="e_0_energy">   -517.08648012 </i>
   </energy>
  </scstep>
  <scstep>
   <time name="dav">    1.31    1.31</time>
   <time name="total">    2.99    2.99</time>
   <energy>
    <i name="e_fr_energy">   -517.08648737 </i>
    <i name="e_wo_entrp">   -517.08648737 </i>
    <i name="e_0_energy">   -517.08648737 </i>
   </energy>
  </scstep>
  <scstep>
   <time name="dav">    1.44    1.44</time>
   <time name="total">    3.14    3.14</time>
   <energy>
    <i name="e_fr_energy">   -517.08649879 </i>
    <i name="e_wo_entrp">   -517.08649879 </i>
    <i name="e_0_energy">   -517.08649879 </i>
   </energy>
  </scstep>
  <scstep>
   <time name="dav">    1.30    1.30</time>
   <time name="total">    2.99    2.99</time>
   <energy>
    <i name="e_fr_energy">   -517.08650642 </i>
    <i name="e_wo_entrp">   -517.08650642 </i>
    <i name="e_0_energy">   -517.08650642 </i>
   </energy>
  </scstep>
  <scstep>
   <time name="dav">    1.41    1.41</time>
   <time name="total">    3.11    3.13</time>
   <energy>
    <i name="e_fr_energy">   -517.08651158 </i>
    <i name="e_wo_entrp">   -517.08651158 </i>
    <i name="e_0_energy">   -517.08651158 </i>
   </energy>
  </scstep>
  <scstep>
   <time name="dav">    1.23    1.23</time>
   <time name="total">    2.91    2.92</time>
   <energy>
    <i name="e_fr_energy">   -517.08651444 </i>
    <i name="e_wo_entrp">   -517.08651444 </i>
    <i name="e_0_energy">   -517.08651444 </i>
   </energy>
  </scstep>
  <scstep>
   <time name="dav">    1.26    1.26</time>
   <time name="total">    2.97    2.97</time>
   <energy>
    <i name="e_fr_energy">   -517.08651590 </i>
    <i name="e_wo_entrp">   -517.08651590 </i>
    <i name="e_0_energy">   -517.08651590 </i>
   </energy>
  </scstep>
  <scstep>
   <time name="dav">    1.27    1.27</time>
   <time name="total">    2.35    2.36</time>
   <energy>
    <i name="alphaZ">   1138.74096316 </i>
    <i name="ewald"> 124123.00396759 </i>
    <i name="hartreedc">-164206.71970652 </i>
    <i name="XCdc">   1264.68175132 </i>
    <i name="pawpsdc">  42945.14088403 </i>
    <i name="pawaedc"> -42242.88574685 </i>
    <i name="eentropy">     -0.00000000 </i>
    <i name="bandstr">  -6051.74227817 </i>
    <i name="atom">  42512.69364877 </i>
    <i name="e_fr_energy">   -517.08651666 </i>
    <i name="e_wo_entrp">   -517.08651666 </i>
    <i name="e_0_energy">   -517.08651666 </i>
   </energy>
  </scstep>
  <structure>
   <crystal>
    <varray name="basis" >
     <v>      11.59819984       0.00000000       0.00000000 </v>
     <v>      -5.79909992      10.04433570       0.00000000 </v>
     <v>       0.00000000       0.00000000      21.04820061 </v>
    </varray>
    <i name="volume">   2452.03565684 </i>
    <varray name="rec_basis" >
     <v>       0.08622028       0.04977930       0.00000000 </v>
     <v>       0.00000000       0.09955860       0.00000000 </v>
     <v>       0.00000000       0.00000000       0.04751000 </v>
    </varray>
   </crystal>
   <varray name="positions" >
    <v>       0.00521274       0.99601797       0.45884709 </v>
    <v>       0.22222000       0.11111000       0.30996000 </v>
    <v>       0.32791244       0.99340546       0.46135277 </v>
    <v>       0.55556000       0.11111000       0.30996000 </v>
    <v>       0.67032963       0.00295272       0.46222080 </v>
    <v>       0.88889000       0.11111000       0.30996000 </v>
    <v>       0.99655435       0.32939164       0.46239695 </v>
    <v>       0.22222000       0.44444000       0.30996000 </v>
    <v>       0.33572222       0.33206118       0.45847620 </v>
    <v>       0.55556000       0.44444000       0.30996000 </v>
    <v>       0.67312967       0.32712268       0.45601429 </v>
    <v>       0.88889000       0.44444000       0.30996000 </v>
    <v>       0.00643211       0.67262922       0.46125911 </v>
    <v>       0.22222000       0.77778000       0.30996000 </v>
    <v>       0.33687450       0.66239818       0.45934484 </v>
    <v>       0.55556000       0.77778000       0.30996000 </v>
    <v>       0.66864160       0.66521847       0.45893009 </v>
    <v>       0.88889000       0.77778000       0.30996000 </v>
    <v>       0.00425365       0.99817821       0.58648526 </v>
    <v>       0.11111000       0.22222000       0.27247000 </v>
    <v>       0.22958967       0.11696314       0.42109093 </v>
    <v>       0.11059171       0.21604978       0.50216577 </v>
    <v>       0.00000000       0.00000000       0.34745000 </v>
    <v>       0.34615888       0.02122291       0.57913452 </v>
    <v>       0.44444000       0.22222000       0.27247000 </v>
    <v>       0.54873216       0.10372052       0.42124511 </v>
    <v>       0.45679688       0.23157498       0.50036749 </v>
    <v>       0.33333000       0.00000000       0.34745000 </v>
    <v>       0.64780399       0.98512277       0.57866957 </v>
    <v>       0.77778000       0.22222000       0.27247000 </v>
    <v>       0.89358101       0.10728365       0.42231052 </v>
    <v>       0.77911583       0.22070528       0.48571957 </v>
    <v>       0.66667000       0.00000000       0.34745000 </v>
    <v>       0.01295200       0.35092982       0.57865432 </v>
    <v>       0.11111000       0.55556000       0.27247000 </v>
    <v>       0.21806447       0.43117744       0.42262978 </v>
    <v>       0.11296045       0.55940936       0.50175767 </v>
    <v>       0.00000000       0.33333000       0.34745000 </v>
    <v>       0.32823386       0.33922363       0.58763424 </v>
    <v>       0.44444000       0.55556000       0.27247000 </v>
    <v>       0.55649138       0.44420288       0.41987729 </v>
    <v>       0.45048213       0.55008449       0.50183211 </v>
    <v>       0.33333000       0.33333000       0.34745000 </v>
    <v>       0.66441190       0.33610959       0.58872097 </v>
    <v>       0.77778000       0.55556000       0.27247000 </v>
    <v>       0.89621197       0.45108003       0.42099795 </v>
    <v>       0.76875106       0.54302856       0.50046436 </v>
    <v>       0.66667000       0.33333000       0.34745000 </v>
    <v>       0.97685207       0.65649635       0.57952596 </v>
    <v>       0.11111000       0.88889000       0.27247000 </v>
    <v>       0.22188990       0.77762280       0.42118114 </v>
    <v>       0.11151056       0.88917514       0.48688096 </v>
    <v>       0.00000000       0.66667000       0.34745000 </v>
    <v>       0.32041285       0.67840687       0.59138430 </v>
    <v>       0.44444000       0.88889000       0.27247000 </v>
    <v>       0.56880017       0.78161513       0.42281817 </v>
    <v>       0.44018377       0.88574433       0.50150810 </v>
    <v>       0.33333000       0.66667000       0.34745000 </v>
    <v>       0.66314438       0.67552914       0.58627253 </v>
    <v>       0.77778000       0.88889000       0.27247000 </v>
    <v>       0.88354245       0.77123260       0.42137854 </v>
    <v>       0.78547568       0.89150839       0.50188211 </v>
    <v>       0.66667000       0.66667000       0.34745000 </v>
    <v>       0.49560968       0.50606394       0.58414478 </v>
    <v>       0.16258079       0.17098717       0.58244243 </v>
    <v>       0.49954888       0.17879194       0.58081296 </v>
    <v>       0.82200609       0.50095982       0.58085920 </v>
    <v>       0.83064984       0.84151563       0.58262504 </v>
    <v>       0.48387703       0.83798762       0.58316179 </v>
    <v>       0.16039530       0.51482955       0.58310107 </v>
   </varray>
  </structure>
  <varray name="forces" >
   <v>       0.01223239       0.00240296      -0.21848484 </v>
   <v>       0.19233755      -0.03446227      -0.39660326 </v>
   <v>      -0.09263295       0.14097757      -0.02280321 </v>
   <v>      -0.04025358      -0.43549372      -0.27896583 </v>
   <v>       0.00705027       0.04448685       0.05000164 </v>
   <v>      -0.05355905       0.05578145      -0.05393250 </v>
   <v>       0.01326782      -0.01824793       0.00047364 </v>
   <v>      -0.15082984      -0.03871559      -0.08172576 </v>
   <v>      -0.03516635      -0.12517277      -0.11484475 </v>
   <v>      -0.10486953       0.08616905      -0.45116905 </v>
   <v>      -0.13507725       0.06540915      -0.06314883 </v>
   <v>       0.37417256       0.24380142      -0.28619087 </v>
   <v>      -0.13701848      -0.01519078      -0.01394376 </v>
   <v>       0.04928711      -0.03374397      -0.11099173 </v>
   <v>      -0.06953279       0.02683907      -0.08826986 </v>
   <v>      -0.02494608       0.11662051      -0.07715263 </v>
   <v>       0.08899846       0.05168335      -0.15355475 </v>
   <v>       0.11173921      -0.14994841      -0.37725312 </v>
   <v>       0.06226212      -0.02364856       0.01226042 </v>
   <v>       0.02357981      -0.03094193      -0.04395819 </v>
   <v>      -0.04497324      -0.00859049       0.06942661 </v>
   <v>      -0.00193661       0.03745205       0.09996076 </v>
   <v>       0.29668155      -0.16489776       0.32405008 </v>
   <v>      -0.12204284       0.04283610      -0.07770313 </v>
   <v>       0.01757305       0.03323584      -0.02351994 </v>
   <v>       0.08818916       0.03191473       0.02102421 </v>
   <v>      -0.08618789      -0.08613936       0.05055207 </v>
   <v>      -0.13740155      -0.05428085       0.17233818 </v>
   <v>      -0.09743314      -0.05438764      -0.06637242 </v>
   <v>      -0.03362458       0.00949971      -0.02607135 </v>
   <v>      -0.01791151      -0.00570430       0.05255775 </v>
   <v>       0.04062187      -0.04209357       0.23403362 </v>
   <v>       0.06000089       0.14844711       0.32877436 </v>
   <v>       0.01908141       0.13739051      -0.06123505 </v>
   <v>      -0.00342410      -0.05277737      -0.05900014 </v>
   <v>       0.03366077       0.03885394      -0.06849776 </v>
   <v>      -0.12723802      -0.07297527       0.03245802 </v>
   <v>      -0.10569772      -0.13000608       0.30372843 </v>
   <v>      -0.10578941       0.05231119       0.08511540 </v>
   <v>       0.03650222      -0.01820262      -0.02850268 </v>
   <v>      -0.01051194       0.00132629       0.07990690 </v>
   <v>      -0.07663006       0.03029494       0.17284385 </v>
   <v>       0.15706487       0.06443762       0.12272526 </v>
   <v>       0.04438265      -0.00054699       0.04009196 </v>
   <v>      -0.02311047      -0.02622643      -0.02465219 </v>
   <v>      -0.00063190      -0.07701573       0.06204979 </v>
   <v>      -0.00445260       0.14008942      -0.00430093 </v>
   <v>       0.22546539      -0.14294824       0.25422484 </v>
   <v>       0.02954657       0.12606973      -0.08334285 </v>
   <v>      -0.07986121       0.04202928      -0.04514540 </v>
   <v>       0.02550841      -0.00329789       0.02570141 </v>
   <v>       0.09486168      -0.06215045       0.23006069 </v>
   <v>      -0.04949470       0.16114576       0.17935192 </v>
   <v>      -0.13571813       0.02339487       0.11522258 </v>
   <v>       0.05203948       0.03380893      -0.05787009 </v>
   <v>      -0.02753970      -0.02585125      -0.07806046 </v>
   <v>       0.01813227       0.17748632       0.06908339 </v>
   <v>       0.26653802      -0.14322848      -0.23139971 </v>
   <v>      -0.17508797      -0.11290629       0.06944356 </v>
   <v>       0.03522805      -0.00442717      -0.04402542 </v>
   <v>      -0.01988238       0.01649103       0.04339225 </v>
   <v>      -0.05682850      -0.02558681       0.11769139 </v>
   <v>       0.03817377      -0.13723855       0.13622612 </v>
   <v>      -0.06213209       0.13702105       0.01550009 </v>
   <v>       0.02041046       0.02205527       0.01442029 </v>
   <v>       0.04633179       0.07597868       0.04954109 </v>
   <v>      -0.14840028      -0.13269119       0.09852767 </v>
   <v>       0.08768373      -0.01449251      -0.02373918 </v>
   <v>      -0.06232873       0.00082459       0.02446024 </v>
   <v>      -0.00844818       0.08566292       0.07921121 </v>
  </varray>
  <varray name="stress" >
   <v>      -4.03951615      -5.58945434      -3.14339565 </v>
   <v>      -5.58947633     -10.43429332       1.74498705 </v>
   <v>      -3.14315268       1.74504506       2.64555194 </v>
  </varray>
  <energy>
   <i name="e_fr_energy">   -517.08651666 </i>
   <i name="e_wo_entrp">   -517.08651666 </i>
   <i name="e_0_energy">   -517.08651666 </i>
  </energy>
  <time name="totalsc">   94.28   94.70</time>
 </calculation>
 <calculation>
  <scstep>
   <time name="dav">    1.56    1.56</time>
   <time name="total">    3.25    3.25</time>
   <energy>
    <i name="alphaZ">   1138.74096316 </i>
    <i name="ewald"> 123894.62152447 </i>
    <i name="hartreedc">-163980.04747109 </i>
    <i name="XCdc">   1264.45531751 </i>
    <i name="pawpsdc">  42945.13978315 </i>
    <i name="pawaedc"> -42242.88468267 </i>
    <i name="eentropy">     -0.00000000 </i>
    <i name="bandstr">  -6049.78171686 </i>
    <i name="atom">  42512.69364877 </i>
    <i name="e_fr_energy">   -517.06263356 </i>
    <i name="e_wo_entrp">   -517.06263356 </i>
    <i name="e_0_energy">   -517.06263356 </i>
   </energy>
  </scstep>
  <scstep>
   <time name="dav">    1.96    1.96</time>
   <time name="total">    3.64    3.64</time>
   <energy>
    <i name="e_fr_energy">   -517.09770901 </i>
    <i name="e_wo_entrp">   -517.09770901 </i>
    <i name="e_0_energy">   -517.09770901 </i>
   </energy>
  </scstep>
  <scstep>
   <time name="dav">    2.54    2.54</time>
   <time name="total">    4.23    4.25</time>
   <energy>
    <i name="e_fr_energy">   -517.09904438 </i>
    <i name="e_wo_entrp">   -517.09904438 </i>
    <i name="e_0_energy">   -517.09904438 </i>
   </energy>
  </scstep>
  <scstep>
   <time name="dav">    2.34    2.34</time>
   <time name="total">    4.03    4.03</time>
   <energy>
    <i name="e_fr_energy">   -517.09834328 </i>
    <i name="e_wo_entrp">   -517.09834328 </i>
    <i name="e_0_energy">   -517.09834328 </i>
   </energy>
  </scstep>
  <scstep>
   <time name="dav">    2.35    2.35</time>
   <time name="total">    4.03    4.03</time>
   <energy>
    <i name="e_fr_energy">   -517.09783397 </i>
    <i name="e_wo_entrp">   -517.09783397 </i>
    <i name="e_0_energy">   -517.09783397 </i>
   </energy>
  </scstep>
  <scstep>
   <time name="dav">    2.33    2.33</time>
   <time name="total">    4.02    4.02</time>
   <energy>
    <i name="e_fr_energy">   -517.09780508 </i>
    <i name="e_wo_entrp">   -517.09780508 </i>
    <i name="e_0_energy">   -517.09780508 </i>
   </energy>
  </scstep>
  <scstep>
   <time name="dav">    2.37    2.37</time>
   <time name="total">    4.05    4.05</time>
   <energy>
    <i name="e_fr_energy">   -517.09782191 </i>
    <i name="e_wo_entrp">   -517.09782191 </i>
    <i name="e_0_energy">   -517.09782191 </i>
   </energy>
  </scstep>
  <scstep>
   <time name="dav">    2.41    2.41</time>
   <time name="total">    4.10    4.10</time>
   <energy>
    <i name="e_fr_energy">   -517.09785707 </i>
    <i name="e_wo_entrp">   -517.09785707 </i>
    <i name="e_0_energy">   -517.09785707 </i>
   </energy>
  </scstep>
  <scstep>
   <time name="dav">    2.30    2.30</time>
   <time name="total">    3.98    3.98</time>
   <energy>
    <i name="e_fr_energy">   -517.09789484 </i>
    <i name="e_wo_entrp">   -517.09789484 </i>
    <i name="e_0_energy">   -517.09789484 </i>
   </energy>
  </scstep>
  <scstep>
   <time name="dav">    2.27    2.27</time>
   <time name="total">    3.96    3.96</time>
   <energy>
    <i name="e_fr_energy">   -517.09794120 </i>
    <i name="e_wo_entrp">   -517.09794120 </i>
    <i name="e_0_energy">   -517.09794120 </i>
   </energy>
  </scstep>
  <scstep>
   <time name="dav">    2.26    2.26</time>
   <time name="total">    3.94    3.94</time>
   <energy>
    <i name="e_fr_energy">   -517.09797400 </i>
    <i name="e_wo_entrp">   -517.09797400 </i>
    <i name="e_0_energy">   -517.09797400 </i>
   </energy>
  </scstep>
  <scstep>
   <time name="dav">    1.63    1.63</time>
   <time name="total">    3.34    3.34</time>
   <energy>
    <i name="e_fr_energy">   -517.09799669 </i>
    <i name="e_wo_entrp">   -517.09799669 </i>
    <i name="e_0_energy">   -517.09799669 </i>
   </energy>
  </scstep>
  <scstep>
   <time name="dav">    1.42    1.42</time>
   <time name="total">    3.12    3.12</time>
   <energy>
    <i name="e_fr_energy">   -517.09801082 </i>
    <i name="e_wo_entrp">   -517.09801082 </i>
    <i name="e_0_energy">   -517.09801082 </i>
   </energy>
  </scstep>
  <scstep>
   <time name="dav">    1.37    1.38</time>
   <time name="total">    3.05    3.05</time>
   <energy>
    <i name="e_fr_energy">   -517.09802708 </i>
    <i name="e_wo_entrp">   -517.09802708 </i>
    <i name="e_0_energy">   -517.09802708 </i>
   </energy>
  </scstep>
  <scstep>
   <time name="dav">    1.48    1.48</time>
   <time name="total">    3.19    3.19</time>
   <energy>
    <i name="e_fr_energy">   -517.09804612 </i>
    <i name="e_wo_entrp">   -517.09804612 </i>
    <i name="e_0_energy">   -517.09804612 </i>
   </energy>
  </scstep>
  <scstep>
   <time name="dav">    1.42    1.42</time>
   <time name="total">    3.11    3.12</time>
   <energy>
    <i name="e_fr_energy">   -517.09806197 </i>
    <i name="e_wo_entrp">   -517.09806197 </i>
    <i name="e_0_energy">   -517.09806197 </i>
   </energy>
  </scstep>
  <scstep>
   <time name="dav">    1.31    1.31</time>
   <time name="total">    2.98    2.98</time>
   <energy>
    <i name="e_fr_energy">   -517.09807345 </i>
    <i name="e_wo_entrp">   -517.09807345 </i>
    <i name="e_0_energy">   -517.09807345 </i>
   </energy>
  </scstep>
  <scstep>
   <time name="dav">    1.37    1.37</time>
   <time name="total">    3.07    3.07</time>
   <energy>
    <i name="e_fr_energy">   -517.09808241 </i>
    <i name="e_wo_entrp">   -517.09808241 </i>
    <i name="e_0_energy">   -517.09808241 </i>
   </energy>
  </scstep>
  <scstep>
   <time name="dav">    1.40    1.41</time>
   <time name="total">    3.09    3.09</time>
   <energy>
    <i name="e_fr_energy">   -517.09809415 </i>
    <i name="e_wo_entrp">   -517.09809415 </i>
    <i name="e_0_energy">   -517.09809415 </i>
   </energy>
  </scstep>
  <scstep>
   <time name="dav">    1.48    1.48</time>
   <time name="total">    3.18    3.18</time>
   <energy>
    <i name="e_fr_energy">   -517.09810505 </i>
    <i name="e_wo_entrp">   -517.09810505 </i>
    <i name="e_0_energy">   -517.09810505 </i>
   </energy>
  </scstep>
  <scstep>
   <time name="dav">    1.49    1.49</time>
   <time name="total">    3.19    3.19</time>
   <energy>
    <i name="e_fr_energy">   -517.09811164 </i>
    <i name="e_wo_entrp">   -517.09811164 </i>
    <i name="e_0_energy">   -517.09811164 </i>
   </energy>
  </scstep>
  <scstep>
   <time name="dav">    1.31    1.31</time>
   <time name="total">    2.99    2.99</time>
   <energy>
    <i name="e_fr_energy">   -517.09811294 </i>
    <i name="e_wo_entrp">   -517.09811294 </i>
    <i name="e_0_energy">   -517.09811294 </i>
   </energy>
  </scstep>
  <scstep>
