unknown system                          
           1
    11.598200    0.000000    0.000000
    -5.799100   10.044336    0.000000
     0.000000    0.000000   21.048201
   Ce   O    Ir
    18    45     7
Direct configuration=     1
   0.00000000  0.00000000  0.45993000
   0.22222000  0.11111000  0.30996000
   0.33333000  0.00000000  0.45993000
   0.55556000  0.11111000  0.30996000
   0.66667000  0.00000000  0.45993000
   0.88889000  0.11111000  0.30996000
   0.00000000  0.33333000  0.45993000
   0.22222000  0.44444000  0.30996000
   0.33333000  0.33333000  0.45993000
   0.55556000  0.44444000  0.30996000
   0.66667000  0.33333000  0.45993000
   0.88889000  0.44444000  0.30996000
   0.00000000  0.66667000  0.45993000
   0.22222000  0.77778000  0.30996000
   0.33333000  0.66667000  0.45993000
   0.55556000  0.77778000  0.30996000
   0.66667000  0.66667000  0.45993000
   0.88889000  0.77778000  0.30996000
   0.00000000  0.00000000  0.57241000
   0.11111000  0.22222000  0.27247000
   0.22222000  0.11111000  0.42244000
   0.11111000  0.22222000  0.49742000
   0.00000000  0.00000000  0.34745000
   0.33333000  0.00000000  0.57241000
   0.44444000  0.22222000  0.27247000
   0.55556000  0.11111000  0.42244000
   0.44444000  0.22222000  0.49742000
   0.33333000  0.00000000  0.34745000
   0.66667000  0.00000000  0.57241000
   0.77778000  0.22222000  0.27247000
   0.88889000  0.11111000  0.42244000
   0.77778000  0.22222000  0.49742000
   0.66667000  0.00000000  0.34745000
   0.00000000  0.33333000  0.57241000
   0.11111000  0.55556000  0.27247000
   0.22222000  0.44444000  0.42244000
   0.11111000  0.55556000  0.49742000
   0.00000000  0.33333000  0.34745000
   0.33333000  0.33333000  0.57241000
   0.44444000  0.55556000  0.27247000
   0.55556000  0.44444000  0.42244000
   0.44444000  0.55556000  0.49742000
   0.33333000  0.33333000  0.34745000
   0.66667000  0.33333000  0.57241000
   0.77778000  0.55556000  0.27247000
   0.88889000  0.44444000  0.42244000
   0.77778000  0.55556000  0.49742000
   0.66667000  0.33333000  0.34745000
   0.00000000  0.66667000  0.57241000
   0.11111000  0.88889000  0.27247000
   0.22222000  0.77778000  0.42244000
   0.11111000  0.88889000  0.49742000
   0.00000000  0.66667000  0.34745000
   0.33333000  0.66667000  0.57241000
   0.44444000  0.88889000  0.27247000
   0.55556000  0.77778000  0.42244000
   0.44444000  0.88889000  0.49742000
   0.33333000  0.66667000  0.34745000
   0.66667000  0.66667000  0.57241000
   0.77778000  0.88889000  0.27247000
   0.88889000  0.77778000  0.42244000
   0.77778000  0.88889000  0.49742000
   0.66667000  0.66667000  0.34745000
   0.49823000  0.50828000  0.57211000
   0.17351000  0.18288000  0.57211000
   0.50907000  0.16924000  0.57211000
   0.82607000  0.50227000  0.57211000
   0.83547000  0.83306000  0.57211000
   0.50468000  0.83649000  0.57211000
   0.15481000  0.48807000  0.57211000
Direct configuration=     2
   0.00410893  0.99442465  0.45729751
   0.22222000  0.11111000  0.30996000
   0.32333343  0.99470606  0.46124353
   0.55556000  0.11111000  0.30996000
   0.67329164  0.01088161  0.45954706
   0.88889000  0.11111000  0.30996000
   0.98833281  0.32681691  0.45846107
   0.22222000  0.44444000  0.30996000
   0.33438454  0.33196316  0.45467057
   0.55556000  0.44444000  0.30996000
   0.67126523  0.32893604  0.45594929
   0.88889000  0.44444000  0.30996000
   0.00579092  0.67681180  0.46096135
   0.22222000  0.77778000  0.30996000
   0.33250664  0.66703467  0.45644847
   0.55556000  0.77778000  0.30996000
   0.66919722  0.66787199  0.45555945
   0.88889000  0.77778000  0.30996000
   0.00403576  0.00557207  0.57453751
   0.11111000  0.22222000  0.27247000
   0.22383072  0.11384934  0.42155644
   0.10897773  0.22369543  0.49581859
   0.00000000  0.00000000  0.34745000
   0.34986651  0.01541620  0.57298359
   0.44444000  0.22222000  0.27247000
   0.55448158  0.10999295  0.42132463
   0.44584203  0.22315943  0.49855699
   0.33333000  0.00000000  0.34745000
   0.65646533  0.98956348  0.57391024
   0.77778000  0.22222000  0.27247000
   0.88988065  0.11059084  0.42195761
   0.77860619  0.22198696  0.49429784
   0.66667000  0.00000000  0.34745000
   0.00149319  0.33448151  0.57445994
   0.11111000  0.55556000  0.27247000
   0.22331535  0.44451327  0.42192791
   0.11295909  0.55660153  0.49769651
   0.00000000  0.33333000  0.34745000
   0.34530285  0.34541012  0.57601661
   0.44444000  0.55556000  0.27247000
   0.55508978  0.44465105  0.42197339
   0.44187738  0.55711472  0.49496327
   0.33333000  0.33333000  0.34745000
   0.66932430  0.33574877  0.57669073
   0.77778000  0.55556000  0.27247000
   0.88999689  0.44552327  0.42142608
   0.77463821  0.55686630  0.49510791
   0.66667000  0.33333000  0.34745000
   0.98549628  0.65336567  0.57329362
   0.11111000  0.88889000  0.27247000
   0.22369640  0.77623091  0.42196403
   0.11130285  0.88891256  0.49390988
   0.00000000  0.66667000  0.34745000
   0.33178956  0.66471424  0.57457941
   0.44444000  0.88889000  0.27247000
   0.55529841  0.77665640  0.42185173
   0.44371246  0.88683530  0.49789086
   0.33333000  0.66667000  0.34745000
   0.66827302  0.66963392  0.57515398
   0.77778000  0.88889000  0.27247000
   0.88641723  0.77615332  0.42137190
   0.77744229  0.88884608  0.49779502
   0.66667000  0.66667000  0.34745000
   0.49666993  0.50205503  0.57637156
   0.15928029  0.16499394  0.57615490
   0.49085509  0.15470878  0.57264955
   0.83933071  0.51150390  0.57565481
   0.83614609  0.83366366  0.57373677
   0.50537690  0.84032940  0.57387564
   0.16229420  0.49778813  0.57389202
Direct configuration=     3
   0.00234803  0.99681399  0.45842567
   0.22222000  0.11111000  0.30996000
   0.32761750  0.99697480  0.46068061
   0.55556000  0.11111000  0.30996000
   0.67045391  0.00621825  0.45971117
   0.88889000  0.11111000  0.30996000
   0.99333283  0.32960812  0.45909058
   0.22222000  0.44444000  0.30996000
   0.33393261  0.33254892  0.45692452
   0.55556000  0.44444000  0.30996000
   0.66929593  0.33081909  0.45765524
   0.88889000  0.44444000  0.30996000
   0.00330920  0.67246549  0.46051936
   0.22222000  0.77778000  0.30996000
   0.33285949  0.66687839  0.45794049
   0.55556000  0.77778000  0.30996000
   0.66811417  0.66735687  0.45743246
   0.88889000  0.77778000  0.30996000
   0.00230622  0.00318414  0.57362575
   0.11111000  0.22222000  0.27247000
   0.22314044  0.11267539  0.42193509
   0.10989152  0.22306313  0.49650488
   0.00000000  0.00000000  0.34745000
   0.34277972  0.00880952  0.57273778
   0.44444000  0.22222000  0.27247000
   0.55494374  0.11047167  0.42180263
   0.44524118  0.22275683  0.49806973
   0.33333000  0.00000000  0.34745000
   0.66083858  0.99403609  0.57326730
   0.77778000  0.22222000  0.27247000
   0.88945610  0.11081333  0.42216434
   0.77825212  0.22208683  0.49563585
   0.66667000  0.00000000  0.34745000
   0.00085328  0.33398802  0.57358143
   0.11111000  0.55556000  0.27247000
   0.22284594  0.44448187  0.42214737
   0.11216666  0.55615518  0.49757801
   0.00000000  0.33333000  0.34745000
   0.34017184  0.34023313  0.57447098
   0.44444000  0.55556000  0.27247000
   0.55529130  0.44456060  0.42217336
   0.44297560  0.55644844  0.49601611
   0.33333000  0.33333000  0.34745000
   0.66818679  0.33471220  0.57485621
   0.77778000  0.55556000  0.27247000
   0.88952253  0.44505903  0.42186060
   0.77598464  0.55630648  0.49609877
   0.66667000  0.33333000  0.34745000
   0.99171191  0.65906729  0.57291494
   0.11111000  0.88889000  0.27247000
   0.22306368  0.77689478  0.42216801
   0.11122020  0.88890289  0.49541415
   0.00000000  0.66667000  0.34745000
   0.33244972  0.66555239  0.57364970
   0.44444000  0.88889000  0.27247000
   0.55541051  0.77713793  0.42210384
   0.44402425  0.88771585  0.49768907
   0.33333000  0.66667000  0.34745000
   0.66758604  0.66836372  0.57397803
   0.77778000  0.88889000  0.27247000
   0.88747694  0.77685044  0.42182964
   0.77758702  0.88886490  0.49763430
   0.66667000  0.66667000  0.34745000
   0.49733850  0.50472276  0.57454525
   0.16537849  0.17265909  0.57442144
   0.49866116  0.16093620  0.57241832
   0.83364778  0.50754667  0.57413566
   0.83585635  0.83340496  0.57303961
   0.50507824  0.83868401  0.57311897
   0.15908681  0.49362338  0.57312833
Direct configuration=     4
   0.00491761  0.99487643  0.45663040
   0.22222000  0.11111000  0.30996000
   0.32170202  0.99181836  0.46003285
   0.55556000  0.11111000  0.30996000
   0.67278636  0.01107345  0.45987946
   0.88889000  0.11111000  0.30996000
   0.98834051  0.32707025  0.45928642
   0.22222000  0.44444000  0.30996000
   0.33332600  0.33378564  0.45467168
   0.55556000  0.44444000  0.30996000
   0.67237344  0.32775230  0.45573878
   0.88889000  0.44444000  0.30996000
   0.00846856  0.67851123  0.46000065
   0.22222000  0.77778000  0.30996000
   0.33360659  0.66657798  0.45617674
   0.55556000  0.77778000  0.30996000
   0.66627814  0.66816785  0.45486150
   0.88889000  0.77778000  0.30996000
   0.00246254  0.00355299  0.57610199
   0.11111000  0.22222000  0.27247000
   0.22429629  0.11391156  0.42093857
   0.11045835  0.22218175  0.49694724
   0.00000000  0.00000000  0.34745000
   0.34550840  0.01116071  0.57434727
   0.44444000  0.22222000  0.27247000
   0.55372104  0.10989362  0.42076467
   0.44644581  0.22328685  0.49858471
   0.33333000  0.00000000  0.34745000
   0.65808195  0.99120293  0.57484336
   0.77778000  0.22222000  0.27247000
   0.89021016  0.10971402  0.42143274
   0.77821709  0.22200523  0.49263532
   0.66667000  0.00000000  0.34745000
   0.00673457  0.33996667  0.57493777
   0.11111000  0.55556000  0.27247000
   0.22165795  0.44040032  0.42063605
   0.11005711  0.55526975  0.49819391
   0.00000000  0.33333000  0.34745000
   0.33594200  0.33634218  0.57708290
   0.44444000  0.55556000  0.27247000
   0.55540343  0.44405555  0.42130970
   0.44475371  0.55500417  0.49651647
   0.33333000  0.33333000  0.34745000
   0.66784989  0.33397901  0.57776275
   0.77778000  0.55556000  0.27247000
   0.89010976  0.44645803  0.42089049
   0.77592997  0.55501925  0.49671697
   0.66667000  0.33333000  0.34745000
   0.98827359  0.65647522  0.57463880
   0.11111000  0.88889000  0.27247000
   0.22183567  0.77798096  0.42138442
   0.11165540  0.88849639  0.49261213
   0.00000000  0.66667000  0.34745000
   0.33146691  0.66445052  0.57642020
   0.44444000  0.88889000  0.27247000
   0.55958926  0.77853786  0.42067045
   0.44450161  0.88927165  0.49813227
   0.33333000  0.66667000  0.34745000
   0.66770366  0.66949382  0.57626322
   0.77778000  0.88889000  0.27247000
   0.88653088  0.77596846  0.42066766
   0.77897165  0.88885242  0.49829883
   0.66667000  0.66667000  0.34745000
   0.50032196  0.50749529  0.57562958
   0.16315822  0.17061498  0.57533823
   0.50173811  0.16708341  0.57370180
   0.82964701  0.50367675  0.57485681
   0.83655704  0.83603242  0.57403976
   0.49728134  0.83397215  0.57435707
   0.16220620  0.49946718  0.57471280
Direct configuration=     5
   0.00558085  0.99437632  0.45616701
   0.22222000  0.11111000  0.30996000
   0.32017515  0.99048741  0.45986565
   0.55556000  0.11111000  0.30996000
   0.67338840  0.01232665  0.45992290
   0.88889000  0.11111000  0.30996000
   0.98705192  0.32641519  0.45933697
   0.22222000  0.44444000  0.30996000
   0.33316943  0.33410485  0.45409019
   0.55556000  0.44444000  0.30996000
   0.67316779  0.32696071  0.45524411
   0.88889000  0.44444000  0.30996000
   0.00980026  0.68007172  0.45986676
   0.22222000  0.77778000  0.30996000
   0.33379942  0.66650044  0.45572148
   0.55556000  0.77778000  0.30996000
   0.66580423  0.66837717  0.45419789
   0.88889000  0.77778000  0.30996000
   0.00250289  0.00364820  0.57674114
   0.11111000  0.22222000  0.27247000
   0.22459463  0.11423063  0.42068135
   0.11060466  0.22195425  0.49706142
   0.00000000  0.00000000  0.34745000
   0.34621271  0.01176759  0.57476270
   0.44444000  0.22222000  0.27247000
   0.55340545  0.10974442  0.42049676
   0.44675674  0.22342365  0.49871763
   0.33333000  0.00000000  0.34745000
   0.65737042  0.99047165  0.57525017
   0.77778000  0.22222000  0.27247000
   0.89040479  0.10943028  0.42124391
   0.77820805  0.22198416  0.49186084
   0.66667000  0.00000000  0.34745000
   0.00825261  0.34150984  0.57528786
   0.11111000  0.55556000  0.27247000
   0.22135131  0.43934681  0.42024596
   0.10951260  0.55504121  0.49835289
   0.00000000  0.33333000  0.34745000
   0.33485021  0.33533787  0.57775707
   0.44444000  0.55556000  0.27247000
   0.55543237  0.44392519  0.42108678
   0.44521267  0.55463138  0.49664562
   0.33333000  0.33333000  0.34745000
   0.66776293  0.33378976  0.57851297
   0.77778000  0.55556000  0.27247000
   0.89026133  0.44681913  0.42064010
   0.77591586  0.55468700  0.49687654
   0.66667000  0.33333000  0.34745000
   0.98738612  0.65580617  0.57508376
   0.11111000  0.88889000  0.27247000
   0.22151870  0.77826132  0.42118216
   0.11176773  0.88839147  0.49188888
   0.00000000  0.66667000  0.34745000
   0.33121324  0.66416612  0.57713531
   0.44444000  0.88889000  0.27247000
   0.56066785  0.77889921  0.42030048
   0.44462483  0.88967322  0.49824667
   0.33333000  0.66667000  0.34745000
   0.66773402  0.66978552  0.57685306
   0.77778000  0.88889000  0.27247000
   0.88628669  0.77574081  0.42036774
   0.77932904  0.88884920  0.49847035
   0.66667000  0.66667000  0.34745000
   0.50109203  0.50821091  0.57590947
   0.16258514  0.17008737  0.57557487
   0.50253231  0.16867009  0.57403309
   0.82861435  0.50267786  0.57504294
   0.83673789  0.83671061  0.57429791
   0.49526886  0.83275595  0.57467664
   0.16301135  0.50097555  0.57512178
Direct configuration=     6
   0.00485036  0.99534495  0.45605550
   0.22222000  0.11111000  0.30996000
   0.32361656  0.99243822  0.46062764
   0.55556000  0.11111000  0.30996000
   0.67145354  0.00932925  0.46121643
   0.88889000  0.11111000  0.30996000
   0.99011506  0.32824435  0.46038298
   0.22222000  0.44444000  0.30996000
   0.33348375  0.33534119  0.45504692
   0.55556000  0.44444000  0.30996000
   0.67221756  0.32776414  0.45498603
   0.88889000  0.44444000  0.30996000
   0.00765201  0.67689398  0.46058212
   0.22222000  0.77778000  0.30996000
   0.33471208  0.66496331  0.45579701
   0.55556000  0.77778000  0.30996000
   0.66467848  0.66797179  0.45455071
   0.88889000  0.77778000  0.30996000
   0.00102520  0.00148610  0.57904852
   0.11111000  0.22222000  0.27247000
   0.22507743  0.11404639  0.41946100
   0.11090372  0.22000991  0.49778430
   0.00000000  0.00000000  0.34745000
   0.34927941  0.01497107  0.57590076
   0.44444000  0.22222000  0.27247000
   0.55257144  0.10887559  0.41941135
   0.44813788  0.22402523  0.49835440
   0.33333000  0.00000000  0.34745000
   0.65027950  0.98403924  0.57622030
   0.77778000  0.22222000  0.27247000
   0.89095514  0.10853370  0.42057328
   0.77828728  0.22201429  0.48978664
   0.66667000  0.00000000  0.34745000
   0.01337222  0.34726044  0.57632574
   0.11111000  0.55556000  0.27247000
   0.21957207  0.43514087  0.41855880
   0.10753591  0.55431016  0.49873541
   0.00000000  0.33333000  0.34745000
   0.33291415  0.33437938  0.57974161
   0.44444000  0.55556000  0.27247000
   0.55568441  0.44351603  0.41958031
   0.44746094  0.55270887  0.49777930
   0.33333000  0.33333000  0.34745000
   0.66742930  0.33307883  0.58101734
   0.77778000  0.55556000  0.27247000
   0.89113907  0.44771201  0.41955355
   0.77624409  0.55269497  0.49744782
   0.66667000  0.33333000  0.34745000
   0.98435208  0.65395907  0.57643408
   0.11111000  0.88889000  0.27247000
   0.22022306  0.77953766  0.42012495
   0.11184411  0.88848974  0.49006424
   0.00000000  0.66667000  0.34745000
   0.33063424  0.66496503  0.58023256
   0.44444000  0.88889000  0.27247000
   0.56497377  0.78099266  0.41865784
   0.44493235  0.89141061  0.49831553
   0.33333000  0.66667000  0.34745000
   0.66924405  0.67226256  0.57900335
   0.77778000  0.88889000  0.27247000
   0.88655298  0.77555618  0.41904975
   0.78121056  0.88975845  0.49842010
   0.66667000  0.66667000  0.34745000
   0.49864008  0.50637669  0.57627322
   0.16446585  0.17314882  0.57561886
   0.50447862  0.17352933  0.57525809
   0.82409192  0.49927052  0.57507390
   0.83567058  0.83778546  0.57523899
   0.49270478  0.83253889  0.57582396
   0.16494814  0.50537899  0.57612148
Direct configuration=     7
   0.00478220  0.99543532  0.45604510
   0.22222000  0.11111000  0.30996000
   0.32393766  0.99262024  0.46069874
   0.55556000  0.11111000  0.30996000
   0.67127300  0.00904958  0.46133712
   0.88889000  0.11111000  0.30996000
   0.99040086  0.32841502  0.46048058
   0.22222000  0.44444000  0.30996000
   0.33351308  0.33545655  0.45513618
   0.55556000  0.44444000  0.30996000
   0.67212889  0.32783911  0.45496195
   0.88889000  0.44444000  0.30996000
   0.00745156  0.67659748  0.46064886
   0.22222000  0.77778000  0.30996000
   0.33479723  0.66481988  0.45580406
   0.55556000  0.77778000  0.30996000
   0.66457345  0.66793397  0.45458363
   0.88889000  0.77778000  0.30996000
   0.00088733  0.00128436  0.57926381
   0.11111000  0.22222000  0.27247000
   0.22512248  0.11402920  0.41934714
   0.11093163  0.21982849  0.49785175
   0.00000000  0.00000000  0.34745000
   0.34956555  0.01526997  0.57600694
   0.44444000  0.22222000  0.27247000
   0.55249362  0.10879452  0.41931007
   0.44826675  0.22408136  0.49832051
   0.33333000  0.00000000  0.34745000
   0.64961788  0.98343906  0.57631081
   0.77778000  0.22222000  0.27247000
   0.89100649  0.10845004  0.42051071
   0.77829468  0.22201710  0.48959310
   0.66667000  0.00000000  0.34745000
   0.01384990  0.34779700  0.57642258
   0.11111000  0.55556000  0.27247000
   0.21940606  0.43474844  0.41840138
   0.10735147  0.55424194  0.49877111
   0.00000000  0.33333000  0.34745000
   0.33273350  0.33428995  0.57992678
   0.44444000  0.55556000  0.27247000
   0.55570793  0.44347786  0.41943974
   0.44767072  0.55252949  0.49788508
   0.33333000  0.33333000  0.34745000
   0.66739817  0.33301249  0.58125101
   0.77778000  0.55556000  0.27247000
   0.89122097  0.44779532  0.41945217
   0.77627472  0.55250910  0.49750112
   0.66667000  0.33333000  0.34745000
   0.98406898  0.65378673  0.57656007
   0.11111000  0.88889000  0.27247000
   0.22010217  0.77965675  0.42002630
   0.11185124  0.88849891  0.48989399
   0.00000000  0.66667000  0.34745000
   0.33058022  0.66503958  0.58052155
   0.44444000  0.88889000  0.27247000
   0.56537554  0.78118799  0.41850457
   0.44496104  0.89157272  0.49832196
   0.33333000  0.66667000  0.34745000
   0.66938495  0.67249368  0.57920398
   0.77778000  0.88889000  0.27247000
   0.88657783  0.77553895  0.41892677
   0.78138611  0.88984328  0.49841542
   0.66667000  0.66667000  0.34745000
   0.49841130  0.50620555  0.57630716
   0.16464133  0.17343448  0.57562297
   0.50466022  0.17398272  0.57537239
   0.82366995  0.49895259  0.57507678
   0.83557099  0.83788575  0.57532680
   0.49246553  0.83251864  0.57593101
   0.16512885  0.50578986  0.57621476
Direct configuration=     8
   0.00416208  0.99650222  0.45595490
   0.22222000  0.11111000  0.30996000
   0.32777938  0.99579424  0.46094575
   0.55556000  0.11111000  0.30996000
   0.66964268  0.00562574  0.46143823
   0.88889000  0.11111000  0.30996000
   0.99422142  0.33017566  0.46071596
   0.22222000  0.44444000  0.30996000
   0.33377595  0.33392831  0.45586286
   0.55556000  0.44444000  0.30996000
   0.67041044  0.32930640  0.45459770
   0.88889000  0.44444000  0.30996000
   0.00436130  0.67287047  0.46094151
   0.22222000  0.77778000  0.30996000
   0.33486585  0.66399958  0.45626201
   0.55556000  0.77778000  0.30996000
   0.66630436  0.66736782  0.45539807
   0.88889000  0.77778000  0.30996000
   0.00247253  0.00218863  0.58089482
   0.11111000  0.22222000  0.27247000
   0.22575089  0.11434831  0.41899477
   0.11016215  0.21882139  0.49778600
   0.00000000  0.00000000  0.34745000
   0.35297417  0.01934376  0.57683962
   0.44444000  0.22222000  0.27247000
   0.55207466  0.10791169  0.41915240
   0.45003663  0.22533163  0.49793653
   0.33333000  0.00000000  0.34745000
   0.64870375  0.98322315  0.57722112
   0.77778000  0.22222000  0.27247000
   0.89137285  0.10803377  0.42069455
   0.77843141  0.22177078  0.48840692
   0.66667000  0.00000000  0.34745000
   0.01459759  0.34929167  0.57728884
   0.11111000  0.55556000  0.27247000
   0.21816309  0.43239765  0.41813110
   0.10720279  0.55436159  0.49902808
   0.00000000  0.33333000  0.34745000
   0.33362976  0.33648800  0.58148353
   0.44444000  0.55556000  0.27247000
   0.55590860  0.44360087  0.41865766
   0.44824343  0.55225670  0.49769408
   0.33333000  0.33333000  0.34745000
   0.66749080  0.33348157  0.58305027
   0.77778000  0.55556000  0.27247000
   0.89211444  0.44818694  0.41917086
   0.77499092  0.55094623  0.49704718
   0.66667000  0.33333000  0.34745000
   0.97900582  0.65024953  0.57742619
   0.11111000  0.88889000  0.27247000
   0.21984096  0.77986980  0.41974292
   0.11166785  0.88892086  0.48889408
   0.00000000  0.66667000  0.34745000
   0.33104771  0.66854377  0.58305378
   0.44444000  0.88889000  0.27247000
   0.56773040  0.78251744  0.41825425
   0.44475076  0.89152505  0.49856816
   0.33333000  0.66667000  0.34745000
   0.66772260  0.67213116  0.58072710
   0.77778000  0.88889000  0.27247000
   0.88611933  0.77500881  0.41863290
   0.78268535  0.89082250  0.49838564
   0.66667000  0.66667000  0.34745000
   0.49788982  0.50429967  0.57845915
   0.16422904  0.17262593  0.57695031
   0.50255843  0.17414986  0.57669385
   0.82467828  0.49971432  0.57648738
   0.83390724  0.83798440  0.57653963
   0.48556988  0.82744900  0.57699134
   0.16810157  0.51059663  0.57714496
Direct configuration=     9
   0.00440279  0.99608810  0.45598991
   0.22222000  0.11111000  0.30996000
   0.32628818  0.99456222  0.46084987
   0.55556000  0.11111000  0.30996000
   0.67027550  0.00695474  0.46139898
   0.88889000  0.11111000  0.30996000
   0.99273843  0.32949225  0.46062459
   0.22222000  0.44444000  0.30996000
   0.33367391  0.33452151  0.45558079
   0.55556000  0.44444000  0.30996000
   0.67107748  0.32873685  0.45473909
   0.88889000  0.44444000  0.30996000
   0.00556081  0.67431714  0.46082792
   0.22222000  0.77778000  0.30996000
   0.33483922  0.66431799  0.45608425
   0.55556000  0.77778000  0.30996000
   0.66563249  0.66758758  0.45508194
   0.88889000  0.77778000  0.30996000
   0.00185721  0.00183763  0.58026173
   0.11111000  0.22222000  0.27247000
   0.22550697  0.11422444  0.41913155
   0.11046083  0.21921231  0.49781152
   0.00000000  0.00000000  0.34745000
   0.35165108  0.01776248  0.57651641
   0.44444000  0.22222000  0.27247000
   0.55223728  0.10825437  0.41921360
   0.44934963  0.22484632  0.49808558
   0.33333000  0.00000000  0.34745000
   0.64905858  0.98330696  0.57686777
   0.77778000  0.22222000  0.27247000
   0.89123065  0.10819535  0.42062319
   0.77837833  0.22186639  0.48886735
   0.66667000  0.00000000  0.34745000
   0.01430737  0.34871150  0.57695259
   0.11111000  0.55556000  0.27247000
   0.21864556  0.43331013  0.41823601
   0.10726050  0.55431515  0.49892833
   0.00000000  0.33333000  0.34745000
   0.33328187  0.33563481  0.58087926
   0.44444000  0.55556000  0.27247000
   0.55583071  0.44355312  0.41896123
   0.44802113  0.55236258  0.49776822
   0.33333000  0.33333000  0.34745000
   0.66745484  0.33329949  0.58235187
   0.77778000  0.55556000  0.27247000
   0.89176763  0.44803493  0.41928005
   0.77548924  0.55155287  0.49722338
   0.66667000  0.33333000  0.34745000
   0.98097114  0.65162253  0.57709000
   0.11111000  0.88889000  0.27247000
   0.21994236  0.77978710  0.41985292
   0.11173904  0.88875707  0.48928221
   0.00000000  0.66667000  0.34745000
   0.33086625  0.66718358  0.58207087
   0.44444000  0.88889000  0.27247000
   0.56681634  0.78200140  0.41835141
   0.44483238  0.89154355  0.49847259
   0.33333000  0.66667000  0.34745000
   0.66836786  0.67227188  0.58013589
   0.77778000  0.88889000  0.27247000
   0.88629730  0.77521459  0.41874697
   0.78218104  0.89044241  0.49839720
   0.66667000  0.66667000  0.34745000
   0.49809224  0.50503946  0.57762383
   0.16438908  0.17293977  0.57643509
   0.50337426  0.17408498  0.57618091
   0.82428689  0.49941865  0.57593984
   0.83455304  0.83794610  0.57606885
   0.48824650  0.82941683  0.57657976
   0.16694768  0.50873084  0.57678389
Direct configuration=    10
   0.00434386  0.99652056  0.45592403
   0.22222000  0.11111000  0.30996000
   0.32782323  0.99618816  0.46039924
   0.55556000  0.11111000  0.30996000
   0.67007776  0.00551966  0.46115507
   0.88889000  0.11111000  0.30996000
   0.99441645  0.32977524  0.46048761
   0.22222000  0.44444000  0.30996000
   0.33365428  0.33211840  0.45585563
   0.55556000  0.44444000  0.30996000
   0.67040760  0.32936956  0.45459305
   0.88889000  0.44444000  0.30996000
   0.00401991  0.67278144  0.46042932
   0.22222000  0.77778000  0.30996000
   0.33448428  0.66413695  0.45618118
   0.55556000  0.77778000  0.30996000
   0.66820673  0.66732802  0.45571787
   0.88889000  0.77778000  0.30996000
   0.00342598  0.00266618  0.58139718
   0.11111000  0.22222000  0.27247000
   0.22631893  0.11500856  0.41939919
   0.10998602  0.21872929  0.49794970
   0.00000000  0.00000000  0.34745000
   0.35089442  0.01784781  0.57723893
   0.44444000  0.22222000  0.27247000
   0.55183063  0.10748818  0.41961111
   0.45092193  0.22625536  0.49800905
   0.33333000  0.00000000  0.34745000
   0.64668773  0.98163424  0.57738387
   0.77778000  0.22222000  0.27247000
   0.89153799  0.10804812  0.42112902
   0.77852240  0.22166550  0.48807938
   0.66667000  0.00000000  0.34745000
   0.01543497  0.35057708  0.57748376
   0.11111000  0.55556000  0.27247000
   0.21808580  0.43248845  0.41893165
   0.10841116  0.55513959  0.49922171
   0.00000000  0.33333000  0.34745000
   0.33386329  0.33740087  0.58206909
   0.44444000  0.55556000  0.27247000
   0.55592071  0.44385486  0.41888008
   0.44831253  0.55234675  0.49788465
   0.33333000  0.33333000  0.34745000
   0.66722179  0.33393245  0.58346842
   0.77778000  0.55556000  0.27247000
   0.89254186  0.44834009  0.41954159
   0.77380969  0.55016841  0.49695171
   0.66667000  0.33333000  0.34745000
   0.97983739  0.65181655  0.57779124
   0.11111000  0.88889000  0.27247000
   0.22028384  0.77937912  0.42015557
   0.11156625  0.88910212  0.48878339
   0.00000000  0.66667000  0.34745000
   0.32885983  0.66871009  0.58387939
   0.44444000  0.88889000  0.27247000
   0.56761261  0.78245786  0.41905463
   0.44413041  0.89015341  0.49896159
   0.33333000  0.66667000  0.34745000
   0.66590000  0.67104542  0.58118193
   0.77778000  0.88889000  0.27247000
   0.88537620  0.77443650  0.41913600
   0.78296501  0.89087375  0.49866823
   0.66667000  0.66667000  0.34745000
   0.49858860  0.50475730  0.57932369
   0.16344011  0.17162698  0.57772753
   0.50444076  0.17676914  0.57722888
   0.82289032  0.49782704  0.57729698
   0.83348799  0.83850082  0.57712599
   0.48847988  0.83110156  0.57750720
   0.16660558  0.50958877  0.57782159
Direct configuration=    11
   0.00434732  0.99649518  0.45592790
   0.22222000  0.11111000  0.30996000
   0.32773312  0.99609271  0.46042569
   0.55556000  0.11111000  0.30996000
   0.67008937  0.00560391  0.46116939
   0.88889000  0.11111000  0.30996000
   0.99431794  0.32975863  0.46049565
   0.22222000  0.44444000  0.30996000
   0.33365543  0.33225947  0.45583950
   0.55556000  0.44444000  0.30996000
   0.67044692  0.32933242  0.45460162
   0.88889000  0.44444000  0.30996000
   0.00411037  0.67287159  0.46045272
   0.22222000  0.77778000  0.30996000
   0.33450511  0.66414758  0.45617549
   0.55556000  0.77778000  0.30996000
   0.66805561  0.66734326  0.45568054
   0.88889000  0.77778000  0.30996000
   0.00333389  0.00261754  0.58133053
   0.11111000  0.22222000  0.27247000
   0.22627127  0.11496253  0.41938348
   0.11001389  0.21875765  0.49794159
   0.00000000  0.00000000  0.34745000
   0.35093884  0.01784280  0.57719651
   0.44444000  0.22222000  0.27247000
   0.55185450  0.10753316  0.41958778
   0.45082963  0.22617265  0.49801354
   0.33333000  0.00000000  0.34745000
   0.64682691  0.98173244  0.57735357
   0.77778000  0.22222000  0.27247000
   0.89151994  0.10805676  0.42109933
   0.77851394  0.22167730  0.48812563
   0.66667000  0.00000000  0.34745000
   0.01536877  0.35046757  0.57745258
   0.11111000  0.55556000  0.27247000
   0.21811866  0.43253668  0.41889081
   0.10834361  0.55509119  0.49920449
   0.00000000  0.33333000  0.34745000
   0.33382916  0.33729719  0.58199924
   0.44444000  0.55556000  0.27247000
   0.55591543  0.44383715  0.41888485
   0.44829543  0.55234768  0.49787782
   0.33333000  0.33333000  0.34745000
   0.66723547  0.33389529  0.58340287
   0.77778000  0.55556000  0.27247000
   0.89249641  0.44832217  0.41952624
   0.77390829  0.55024968  0.49696766
   0.66667000  0.33333000  0.34745000
   0.97990395  0.65180516  0.57775007
   0.11111000  0.88889000  0.27247000
   0.22026380  0.77940307  0.42013781
   0.11157640  0.88908187  0.48881267
   0.00000000  0.66667000  0.34745000
   0.32897761  0.66862048  0.58377322
   0.44444000  0.88889000  0.27247000
   0.56756586  0.78243106  0.41901335
   0.44417162  0.89023502  0.49893288
   0.33333000  0.66667000  0.34745000
   0.66604487  0.67111742  0.58112052
   0.77778000  0.88889000  0.27247000
   0.88543027  0.77448217  0.41911316
   0.78291899  0.89084843  0.49865232
   0.66667000  0.66667000  0.34745000
   0.49855946  0.50477386  0.57922390
   0.16349582  0.17170405  0.57765166
   0.50437815  0.17661156  0.57716736
   0.82297231  0.49792047  0.57721731
   0.83355051  0.83846826  0.57706393
   0.48846618  0.83100266  0.57745276
   0.16662566  0.50953840  0.57776067
Direct configuration=    12
   0.00460936  0.99638106  0.45630659
   0.22222000  0.11111000  0.30996000
   0.32760096  0.99579360  0.46018377
   0.55556000  0.11111000  0.30996000
   0.67058331  0.00525955  0.46091237