 134 134   0   0
  0.3253129E+02  0.1546430E-08  0.1546430E-08  0.2104820E-08  0.5000000E-15
  1.000000000000000E-004
  CAR 
 unknown system                          
      1.61554154    -38.46704224  301     -2.64323299      1.00000000
    -38.467  0.0000E+00  0.0000E+00  0.0000E+00  0.0000E+00
    -38.333  0.0000E+00  0.0000E+00  0.0000E+00  0.0000E+00
    -38.200  0.0000E+00  0.0000E+00  0.0000E+00  0.0000E+00
    -38.066  0.0000E+00  0.0000E+00  0.0000E+00  0.0000E+00
    -37.933  0.0000E+00  0.0000E+00  0.0000E+00  0.0000E+00
    -37.799  0.0000E+00  0.0000E+00  0.0000E+00  0.0000E+00
    -37.665  0.0000E+00  0.0000E+00  0.0000E+00  0.0000E+00
    -37.532  0.0000E+00  0.0000E+00  0.0000E+00  0.0000E+00
    -37.398  0.0000E+00  0.0000E+00  0.0000E+00  0.0000E+00
    -37.265  0.0000E+00  0.0000E+00  0.0000E+00  0.0000E+00
    -37.131  0.0000E+00  0.0000E+00  0.0000E+00  0.0000E+00
    -36.997  0.0000E+00  0.0000E+00  0.0000E+00  0.0000E+00
    -36.864  0.5701E-11  0.7823E-11  0.7618E-12  0.1045E-11
    -36.730  0.1893E-03  0.2170E-03  0.2529E-04  0.2899E-04
    -36.597  0.8320E-01  0.8590E-01  0.1114E-01  0.1151E-01
    -36.463  0.3086E+00  0.3452E+00  0.5237E-01  0.5763E-01
    -36.329  0.3731E+00  0.3578E+00  0.1022E+00  0.1054E+00
    -36.196  0.3326E-01  0.9294E-02  0.1067E+00  0.1067E+00
    -36.062  0.2371E-06  0.6136E-08  0.1067E+00  0.1067E+00
    -35.928  0.0000E+00  0.0000E+00  0.1067E+00  0.1067E+00
    -35.795  0.0000E+00  0.0000E+00  0.1067E+00  0.1067E+00
    -35.661  0.0000E+00  0.0000E+00  0.1067E+00  0.1067E+00
    -35.528  0.0000E+00  0.0000E+00  0.1067E+00  0.1067E+00
    -35.394  0.0000E+00  0.0000E+00  0.1067E+00  0.1067E+00
    -35.260  0.0000E+00  0.0000E+00  0.1067E+00  0.1067E+00
    -35.127  0.0000E+00  0.0000E+00  0.1067E+00  0.1067E+00
    -34.993  0.0000E+00  0.0000E+00  0.1067E+00  0.1067E+00
    -34.860  0.0000E+00  0.0000E+00  0.1067E+00  0.1067E+00
    -34.726  0.0000E+00  0.0000E+00  0.1067E+00  0.1067E+00
    -34.592  0.0000E+00  0.0000E+00  0.1067E+00  0.1067E+00
    -34.459  0.0000E+00  0.0000E+00  0.1067E+00  0.1067E+00
    -34.325  0.0000E+00  0.0000E+00  0.1067E+00  0.1067E+00
    -34.192  0.0000E+00  0.0000E+00  0.1067E+00  0.1067E+00
    -34.058  0.0000E+00  0.0000E+00  0.1067E+00  0.1067E+00
    -33.924  0.0000E+00  0.0000E+00  0.1067E+00  0.1067E+00
    -33.791  0.0000E+00  0.0000E+00  0.1067E+00  0.1067E+00
    -33.657  0.0000E+00  0.0000E+00  0.1067E+00  0.1067E+00
    -33.524  0.0000E+00  0.0000E+00  0.1067E+00  0.1067E+00
    -33.390  0.0000E+00  0.0000E+00  0.1067E+00  0.1067E+00
    -33.256  0.0000E+00  0.0000E+00  0.1067E+00  0.1067E+00
    -33.123  0.0000E+00  0.0000E+00  0.1067E+00  0.1067E+00
    -32.989  0.0000E+00  0.0000E+00  0.1067E+00  0.1067E+00
    -32.855  0.0000E+00  0.0000E+00  0.1067E+00  0.1067E+00
    -32.722  0.0000E+00  0.0000E+00  0.1067E+00  0.1067E+00
    -32.588  0.0000E+00  0.0000E+00  0.1067E+00  0.1067E+00
    -32.455  0.0000E+00  0.0000E+00  0.1067E+00  0.1067E+00
    -32.321  0.0000E+00  0.0000E+00  0.1067E+00  0.1067E+00
    -32.187  0.0000E+00  0.0000E+00  0.1067E+00  0.1067E+00
    -32.054  0.0000E+00  0.0000E+00  0.1067E+00  0.1067E+00
    -31.920  0.0000E+00  0.0000E+00  0.1067E+00  0.1067E+00
    -31.787  0.0000E+00  0.0000E+00  0.1067E+00  0.1067E+00
    -31.653  0.0000E+00  0.0000E+00  0.1067E+00  0.1067E+00
    -31.519  0.0000E+00  0.0000E+00  0.1067E+00  0.1067E+00
    -31.386  0.0000E+00  0.0000E+00  0.1067E+00  0.1067E+00
    -31.252  0.0000E+00  0.0000E+00  0.1067E+00  0.1067E+00
    -31.119  0.0000E+00  0.0000E+00  0.1067E+00  0.1067E+00
    -30.985  0.0000E+00  0.0000E+00  0.1067E+00  0.1067E+00
    -30.851  0.0000E+00  0.0000E+00  0.1067E+00  0.1067E+00
    -30.718  0.0000E+00  0.0000E+00  0.1067E+00  0.1067E+00
    -30.584  0.0000E+00  0.0000E+00  0.1067E+00  0.1067E+00
    -30.451  0.0000E+00  0.0000E+00  0.1067E+00  0.1067E+00
    -30.317  0.0000E+00  0.0000E+00  0.1067E+00  0.1067E+00
    -30.183  0.0000E+00  0.0000E+00  0.1067E+00  0.1067E+00
    -30.050  0.0000E+00  0.0000E+00  0.1067E+00  0.1067E+00
    -29.916  0.0000E+00  0.0000E+00  0.1067E+00  0.1067E+00
    -29.782  0.0000E+00  0.0000E+00  0.1067E+00  0.1067E+00
    -29.649  0.0000E+00  0.0000E+00  0.1067E+00  0.1067E+00
    -29.515  0.0000E+00  0.0000E+00  0.1067E+00  0.1067E+00
    -29.382  0.0000E+00  0.0000E+00  0.1067E+00  0.1067E+00
    -29.248  0.0000E+00  0.0000E+00  0.1067E+00  0.1067E+00
    -29.114  0.0000E+00  0.0000E+00  0.1067E+00  0.1067E+00
    -28.981  0.0000E+00  0.0000E+00  0.1067E+00  0.1067E+00
    -28.847  0.0000E+00  0.0000E+00  0.1067E+00  0.1067E+00
    -28.714  0.0000E+00  0.0000E+00  0.1067E+00  0.1067E+00
    -28.580  0.0000E+00  0.0000E+00  0.1067E+00  0.1067E+00
    -28.446  0.0000E+00  0.0000E+00  0.1067E+00  0.1067E+00
    -28.313  0.0000E+00  0.0000E+00  0.1067E+00  0.1067E+00
    -28.179  0.0000E+00  0.0000E+00  0.1067E+00  0.1067E+00
    -28.046  0.0000E+00  0.0000E+00  0.1067E+00  0.1067E+00
    -27.912  0.0000E+00  0.0000E+00  0.1067E+00  0.1067E+00
    -27.778  0.0000E+00  0.0000E+00  0.1067E+00  0.1067E+00
    -27.645  0.0000E+00  0.0000E+00  0.1067E+00  0.1067E+00
    -27.511  0.0000E+00  0.0000E+00  0.1067E+00  0.1067E+00
    -27.378  0.0000E+00  0.0000E+00  0.1067E+00  0.1067E+00
    -27.244  0.0000E+00  0.0000E+00  0.1067E+00  0.1067E+00
    -27.110  0.0000E+00  0.0000E+00  0.1067E+00  0.1067E+00
    -26.977  0.0000E+00  0.0000E+00  0.1067E+00  0.1067E+00
    -26.843  0.0000E+00  0.0000E+00  0.1067E+00  0.1067E+00
    -26.709  0.0000E+00  0.0000E+00  0.1067E+00  0.1067E+00
    -26.576  0.0000E+00  0.0000E+00  0.1067E+00  0.1067E+00
    -26.442  0.0000E+00  0.0000E+00  0.1067E+00  0.1067E+00
    -26.309  0.0000E+00  0.0000E+00  0.1067E+00  0.1067E+00
    -26.175  0.0000E+00  0.0000E+00  0.1067E+00  0.1067E+00
    -26.041  0.0000E+00  0.0000E+00  0.1067E+00  0.1067E+00
    -25.908  0.0000E+00  0.0000E+00  0.1067E+00  0.1067E+00
    -25.774  0.0000E+00  0.0000E+00  0.1067E+00  0.1067E+00
    -25.641  0.0000E+00  0.0000E+00  0.1067E+00  0.1067E+00
    -25.507  0.0000E+00  0.0000E+00  0.1067E+00  0.1067E+00
    -25.373  0.0000E+00  0.0000E+00  0.1067E+00  0.1067E+00
    -25.240  0.0000E+00  0.0000E+00  0.1067E+00  0.1067E+00
    -25.106  0.0000E+00  0.0000E+00  0.1067E+00  0.1067E+00
    -24.973  0.0000E+00  0.0000E+00  0.1067E+00  0.1067E+00
    -24.839  0.0000E+00  0.0000E+00  0.1067E+00  0.1067E+00
    -24.705  0.0000E+00  0.0000E+00  0.1067E+00  0.1067E+00
    -24.572  0.0000E+00  0.0000E+00  0.1067E+00  0.1067E+00
    -24.438  0.0000E+00  0.0000E+00  0.1067E+00  0.1067E+00
    -24.305  0.0000E+00  0.0000E+00  0.1067E+00  0.1067E+00
    -24.171  0.0000E+00  0.0000E+00  0.1067E+00  0.1067E+00
    -24.037  0.0000E+00  0.0000E+00  0.1067E+00  0.1067E+00
    -23.904  0.0000E+00  0.0000E+00  0.1067E+00  0.1067E+00
    -23.770  0.0000E+00  0.0000E+00  0.1067E+00  0.1067E+00
    -23.636  0.0000E+00  0.0000E+00  0.1067E+00  0.1067E+00
    -23.503  0.0000E+00  0.0000E+00  0.1067E+00  0.1067E+00
    -23.369  0.0000E+00  0.0000E+00  0.1067E+00  0.1067E+00
    -23.236  0.0000E+00  0.0000E+00  0.1067E+00  0.1067E+00
    -23.102  0.0000E+00  0.0000E+00  0.1067E+00  0.1067E+00
    -22.968  0.0000E+00  0.0000E+00  0.1067E+00  0.1067E+00
    -22.835  0.0000E+00  0.0000E+00  0.1067E+00  0.1067E+00
    -22.701  0.0000E+00  0.0000E+00  0.1067E+00  0.1067E+00
    -22.568  0.0000E+00  0.0000E+00  0.1067E+00  0.1067E+00
    -22.434  0.0000E+00  0.0000E+00  0.1067E+00  0.1067E+00
    -22.300  0.0000E+00  0.0000E+00  0.1067E+00  0.1067E+00
    -22.167  0.0000E+00  0.0000E+00  0.1067E+00  0.1067E+00
    -22.033  0.5339E-08  0.1969E-10  0.1067E+00  0.1067E+00
    -21.900  0.3388E-02  0.3445E-03  0.1071E+00  0.1067E+00
    -21.766  0.6340E-01  0.4431E-01  0.1156E+00  0.1126E+00
    -21.632  0.7845E-01  0.6547E-01  0.1261E+00  0.1214E+00
    -21.499  0.1247E+00  0.9204E-01  0.1427E+00  0.1337E+00
    -21.365  0.2682E+00  0.1226E+00  0.1786E+00  0.1501E+00
    -21.232  0.1949E+00  0.2445E+00  0.2046E+00  0.1827E+00
    -21.098  0.6330E-01  0.1804E+00  0.2131E+00  0.2068E+00
    -20.964  0.1999E+00  0.1144E+00  0.2398E+00  0.2221E+00
    -20.831  0.2906E+00  0.1045E+00  0.2786E+00  0.2361E+00
    -20.697  0.9717E-01  0.1007E+00  0.2916E+00  0.2495E+00
    -20.563  0.8008E-01  0.8742E-01  0.3023E+00  0.2612E+00
    -20.430  0.1537E+00  0.6600E-01  0.3228E+00  0.2700E+00
    -20.296  0.7186E-01  0.8812E-01  0.3324E+00  0.2818E+00
    -20.163  0.1627E+00  0.2028E+00  0.3542E+00  0.3089E+00
    -20.029  0.1127E+00  0.9913E-01  0.3692E+00  0.3222E+00
    -19.895  0.6715E-01  0.5443E-01  0.3782E+00  0.3294E+00
    -19.762  0.1648E-01  0.9961E-01  0.3804E+00  0.3427E+00
    -19.628  0.6815E-01  0.5330E-02  0.3895E+00  0.3434E+00
    -19.495  0.2854E-01  0.5330E-01  0.3933E+00  0.3506E+00
    -19.361  0.5407E-01  0.1764E+00  0.4005E+00  0.3741E+00
    -19.227  0.3650E-01  0.1077E+00  0.4054E+00  0.3885E+00
    -19.094  0.5417E-01  0.6309E-01  0.4127E+00  0.3969E+00
    -18.960  0.2405E+00  0.2100E+00  0.4448E+00  0.4250E+00
    -18.827  0.3105E+00  0.2624E+00  0.4863E+00  0.4601E+00
    -18.693  0.2526E+00  0.2133E+00  0.5200E+00  0.4886E+00
    -18.559  0.6567E-01  0.9895E-01  0.5288E+00  0.5018E+00
    -18.426  0.2289E+00  0.8900E-01  0.5594E+00  0.5137E+00
    -18.292  0.8581E-01  0.7397E-01  0.5709E+00  0.5236E+00
    -18.159  0.4298E-01  0.5595E-01  0.5766E+00  0.5310E+00
    -18.025  0.2686E-01  0.1726E-01  0.5802E+00  0.5333E+00
    -17.891  0.2958E-01  0.1871E-02  0.5841E+00  0.5336E+00
    -17.758  0.3329E-01  0.4233E-01  0.5886E+00  0.5392E+00
    -17.624  0.4147E-01  0.1028E+00  0.5941E+00  0.5530E+00
    -17.490  0.6551E-01  0.1456E+00  0.6029E+00  0.5724E+00
    -17.357  0.1062E+00  0.3959E-01  0.6171E+00  0.5777E+00
    -17.223  0.8886E-01  0.1771E+00  0.6289E+00  0.6014E+00
    -17.090  0.6958E-01  0.6521E-01  0.6382E+00  0.6101E+00
    -16.956  0.8892E-01  0.5325E-01  0.6501E+00  0.6172E+00
    -16.822  0.1252E+00  0.1436E+00  0.6668E+00  0.6364E+00
    -16.689  0.2367E-01  0.1988E+00  0.6700E+00  0.6629E+00
    -16.555  0.3306E-01  0.5264E-01  0.6744E+00  0.6700E+00
    -16.422  0.1894E+00  0.3422E-02  0.6997E+00  0.6704E+00
    -16.288  0.1300E+00  0.1320E+00  0.7171E+00  0.6881E+00
    -16.154  0.7811E-01  0.2510E+00  0.7275E+00  0.7216E+00
    -16.021  0.5847E-01  0.8538E-01  0.7353E+00  0.7330E+00
    -15.887  0.5897E-01  0.2019E-01  0.7432E+00  0.7357E+00
    -15.754  0.2059E-02  0.5390E-01  0.7435E+00  0.7429E+00
    -15.620  0.4058E-01  0.8575E-02  0.7489E+00  0.7440E+00
    -15.486  0.3125E-01  0.5464E-01  0.7531E+00  0.7513E+00
    -15.353  0.1849E-02  0.1487E-01  0.7533E+00  0.7533E+00
    -15.219  0.2172E-08  0.3682E-05  0.7533E+00  0.7533E+00
    -15.086  0.0000E+00  0.1717E-14  0.7533E+00  0.7533E+00
    -14.952  0.0000E+00  0.0000E+00  0.7533E+00  0.7533E+00
    -14.818  0.0000E+00  0.0000E+00  0.7533E+00  0.7533E+00
    -14.685  0.0000E+00  0.0000E+00  0.7533E+00  0.7533E+00
    -14.551  0.0000E+00  0.0000E+00  0.7533E+00  0.7533E+00
    -14.417  0.0000E+00  0.0000E+00  0.7533E+00  0.7533E+00
    -14.284  0.0000E+00  0.0000E+00  0.7533E+00  0.7533E+00
    -14.150  0.0000E+00  0.0000E+00  0.7533E+00  0.7533E+00
    -14.017  0.0000E+00  0.0000E+00  0.7533E+00  0.7533E+00
    -13.883  0.0000E+00  0.0000E+00  0.7533E+00  0.7533E+00
    -13.749  0.0000E+00  0.0000E+00  0.7533E+00  0.7533E+00
    -13.616  0.0000E+00  0.0000E+00  0.7533E+00  0.7533E+00
    -13.482  0.0000E+00  0.0000E+00  0.7533E+00  0.7533E+00
    -13.349  0.0000E+00  0.0000E+00  0.7533E+00  0.7533E+00
    -13.215  0.0000E+00  0.0000E+00  0.7533E+00  0.7533E+00
    -13.081  0.0000E+00  0.0000E+00  0.7533E+00  0.7533E+00
    -12.948  0.0000E+00  0.0000E+00  0.7533E+00  0.7533E+00
    -12.814  0.0000E+00  0.0000E+00  0.7533E+00  0.7533E+00
    -12.681  0.0000E+00  0.0000E+00  0.7533E+00  0.7533E+00
    -12.547  0.0000E+00  0.0000E+00  0.7533E+00  0.7533E+00
    -12.413  0.0000E+00  0.0000E+00  0.7533E+00  0.7533E+00
    -12.280  0.0000E+00  0.0000E+00  0.7533E+00  0.7533E+00
    -12.146  0.0000E+00  0.0000E+00  0.7533E+00  0.7533E+00
    -12.013  0.0000E+00  0.0000E+00  0.7533E+00  0.7533E+00
    -11.879  0.0000E+00  0.0000E+00  0.7533E+00  0.7533E+00
    -11.745  0.0000E+00  0.0000E+00  0.7533E+00  0.7533E+00
    -11.612  0.0000E+00  0.0000E+00  0.7533E+00  0.7533E+00
    -11.478  0.0000E+00  0.0000E+00  0.7533E+00  0.7533E+00
    -11.344  0.0000E+00  0.0000E+00  0.7533E+00  0.7533E+00
    -11.211  0.0000E+00  0.0000E+00  0.7533E+00  0.7533E+00
    -11.077  0.0000E+00  0.0000E+00  0.7533E+00  0.7533E+00
    -10.944  0.0000E+00  0.0000E+00  0.7533E+00  0.7533E+00
    -10.810  0.0000E+00  0.0000E+00  0.7533E+00  0.7533E+00
    -10.676  0.0000E+00  0.0000E+00  0.7533E+00  0.7533E+00
    -10.543  0.0000E+00  0.0000E+00  0.7533E+00  0.7533E+00
    -10.409  0.0000E+00  0.0000E+00  0.7533E+00  0.7533E+00
    -10.276  0.0000E+00  0.0000E+00  0.7533E+00  0.7533E+00
    -10.142  0.4836E-07  0.5071E-07  0.7533E+00  0.7533E+00
    -10.008  0.7944E-02  0.8061E-02  0.7544E+00  0.7544E+00
     -9.875  0.4186E-01  0.4175E-01  0.7600E+00  0.7600E+00
     -9.741  0.3716E-01  0.3734E-01  0.7650E+00  0.7650E+00
     -9.608  0.5541E-01  0.5556E-01  0.7724E+00  0.7724E+00
     -9.474  0.1602E+00  0.1601E+00  0.7938E+00  0.7938E+00
     -9.340  0.4704E-01  0.4678E-01  0.8000E+00  0.8000E+00
     -9.207  0.4481E-01  0.4490E-01  0.8060E+00  0.8060E+00
     -9.073  0.4726E-01  0.4748E-01  0.8123E+00  0.8124E+00
     -8.940  0.5271E-01  0.5245E-01  0.8194E+00  0.8194E+00
     -8.806  0.4622E-02  0.4555E-02  0.8200E+00  0.8200E+00
     -8.672  0.2329E-07  0.2229E-07  0.8200E+00  0.8200E+00
     -8.539  0.0000E+00  0.0000E+00  0.8200E+00  0.8200E+00
     -8.405  0.0000E+00  0.0000E+00  0.8200E+00  0.8200E+00
     -8.271  0.0000E+00  0.0000E+00  0.8200E+00  0.8200E+00
     -8.138  0.0000E+00  0.0000E+00  0.8200E+00  0.8200E+00
     -8.004  0.8933E-13  0.8396E-13  0.8200E+00  0.8200E+00
     -7.871  0.2625E-04  0.2548E-04  0.8200E+00  0.8200E+00
     -7.737  0.2313E-01  0.2296E-01  0.8231E+00  0.8231E+00
     -7.603  0.2668E-01  0.2685E-01  0.8267E+00  0.8267E+00
     -7.470  0.5978E-04  0.6289E-04  0.8267E+00  0.8267E+00
     -7.336  0.4379E-05  0.4273E-05  0.8267E+00  0.8267E+00
     -7.203  0.1966E-01  0.1956E-01  0.8293E+00  0.8293E+00
     -7.069  0.3020E-01  0.3029E-01  0.8333E+00  0.8333E+00
     -6.935  0.3844E-04  0.3898E-04  0.8333E+00  0.8333E+00
     -6.802  0.5966E-03  0.1961E-12  0.8334E+00  0.8333E+00
     -6.668  0.8579E-01  0.1651E-05  0.8449E+00  0.8333E+00
     -6.535  0.3834E-01  0.2070E-01  0.8500E+00  0.8361E+00
     -6.401  0.1159E-01  0.7466E-01  0.8515E+00  0.8461E+00
     -6.267  0.2080E+00  0.5470E-01  0.8793E+00  0.8534E+00
     -6.134  0.4644E+00  0.4890E-01  0.9414E+00  0.8599E+00
     -6.000  0.2328E+00  0.1890E+00  0.9725E+00  0.8852E+00
     -5.867  0.1854E+00  0.2088E+00  0.9972E+00  0.9131E+00
     -5.733  0.1355E+00  0.1543E+00  0.1015E+01  0.9337E+00
     -5.599  0.4230E+00  0.2974E+00  0.1072E+01  0.9734E+00
     -5.466  0.3109E+00  0.2683E+00  0.1113E+01  0.1009E+01
     -5.332  0.2335E+00  0.2236E+00  0.1145E+01  0.1039E+01
     -5.198  0.2970E+00  0.2619E+00  0.1184E+01  0.1074E+01
     -5.065  0.1696E+00  0.1260E+00  0.1207E+01  0.1091E+01
     -4.931  0.1876E+00  0.9720E-01  0.1232E+01  0.1104E+01
     -4.798  0.1402E+00  0.1439E+00  0.1251E+01  0.1123E+01
     -4.664  0.2763E+00  0.1835E+00  0.1288E+01  0.1148E+01
     -4.530  0.1722E+00  0.2116E+00  0.1311E+01  0.1176E+01
     -4.397  0.1712E+00  0.1422E+00  0.1334E+01  0.1195E+01
     -4.263  0.2981E+00  0.2991E+00  0.1373E+01  0.1235E+01
     -4.130  0.2730E+00  0.1651E+00  0.1410E+01  0.1257E+01
     -3.996  0.2636E+00  0.3330E+00  0.1445E+01  0.1302E+01
     -3.862  0.4040E+00  0.3134E+00  0.1499E+01  0.1343E+01
     -3.729  0.3601E+00  0.3953E+00  0.1547E+01  0.1396E+01
     -3.595  0.3542E+00  0.3432E+00  0.1594E+01  0.1442E+01
     -3.462  0.2947E+00  0.2851E+00  0.1634E+01  0.1480E+01
     -3.328  0.2929E+00  0.3820E+00  0.1673E+01  0.1531E+01
     -3.194  0.1564E+00  0.2880E+00  0.1694E+01  0.1570E+01
     -3.061  0.2004E+00  0.2135E+00  0.1721E+01  0.1598E+01
     -2.927  0.9425E-01  0.2032E+00  0.1733E+01  0.1625E+01
     -2.794  0.8095E-03  0.9858E-02  0.1733E+01  0.1627E+01
     -2.660  0.1533E-09  0.5387E-07  0.1733E+01  0.1627E+01
     -2.526  0.4606E-07  0.1397E-06  0.1733E+01  0.1627E+01
     -2.393  0.7972E-02  0.1853E-01  0.1734E+01  0.1629E+01
     -2.259  0.4181E-01  0.3472E+00  0.1740E+01  0.1676E+01
     -2.125  0.3328E-01  0.3432E+00  0.1744E+01  0.1721E+01
     -1.992  0.7615E-01  0.2419E+00  0.1755E+01  0.1754E+01
     -1.858  0.4049E-01  0.4725E-01  0.1760E+01  0.1760E+01
     -1.725  0.2474E-01  0.2476E-01  0.1763E+01  0.1763E+01
     -1.591  0.5057E-01  0.5059E-01  0.1770E+01  0.1770E+01
     -1.457  0.2433E-01  0.2429E-01  0.1773E+01  0.1773E+01
     -1.324  0.5254E-04  0.5202E-04  0.1773E+01  0.1773E+01
     -1.190  0.3888E-12  0.3805E-12  0.1773E+01  0.1773E+01
     -1.057  0.0000E+00  0.0000E+00  0.1773E+01  0.1773E+01
     -0.923  0.1661E-10  0.2456E-10  0.1773E+01  0.1773E+01
     -0.789  0.4884E-03  0.5686E-03  0.1773E+01  0.1773E+01
     -0.656  0.1201E+00  0.1272E+00  0.1789E+01  0.1790E+01
     -0.522  0.5455E+00  0.6307E+00  0.1862E+01  0.1875E+01
     -0.389  0.1140E+01  0.1185E+01  0.2015E+01  0.2033E+01
     -0.255  0.1192E+01  0.1146E+01  0.2174E+01  0.2186E+01
     -0.121  0.4938E+00  0.4026E+00  0.2240E+01  0.2240E+01
      0.012  0.7425E-03  0.4725E-03  0.2240E+01  0.2240E+01
      0.146  0.1367E-10  0.3882E-11  0.2240E+01  0.2240E+01
      0.279  0.0000E+00  0.0000E+00  0.2240E+01  0.2240E+01
      0.413  0.0000E+00  0.0000E+00  0.2240E+01  0.2240E+01
      0.547  0.0000E+00  0.0000E+00  0.2240E+01  0.2240E+01
      0.680  0.0000E+00  0.0000E+00  0.2240E+01  0.2240E+01
      0.814  0.0000E+00  0.0000E+00  0.2240E+01  0.2240E+01
      0.947  0.0000E+00  0.0000E+00  0.2240E+01  0.2240E+01
      1.081  0.0000E+00  0.0000E+00  0.2240E+01  0.2240E+01
      1.215  0.0000E+00  0.0000E+00  0.2240E+01  0.2240E+01
      1.348  0.0000E+00  0.0000E+00  0.2240E+01  0.2240E+01
      1.482  0.0000E+00  0.0000E+00  0.2240E+01  0.2240E+01
      1.616  0.0000E+00  0.0000E+00  0.2240E+01  0.2240E+01
