  134  134  300    2
  0.3253129E+02  0.1546430E-08  0.1546430E-08  0.2104820E-08  0.5000000E-15
  1.000000000000000E-004
  CAR 
 unknown system                          
   1008      1    672
 
  0.0000000E+00  0.0000000E+00  0.0000000E+00  0.1000000E+01
      1        -36.643347      -36.645107   1.000000   1.000000
      2        -36.612667      -36.613867   1.000000   1.000000
      3        -36.591800      -36.593154   1.000000   1.000000
      4        -36.588786      -36.590230   1.000000   1.000000
      5        -36.574318      -36.575583   1.000000   1.000000
      6        -36.569397      -36.571273   1.000000   1.000000
      7        -36.566302      -36.567990   1.000000   1.000000
      8        -36.552373      -36.553331   1.000000   1.000000
      9        -36.538397      -36.539422   1.000000   1.000000
     10        -36.533980      -36.535019   1.000000   1.000000
     11        -36.518734      -36.520482   1.000000   1.000000
     12        -36.508002      -36.509349   1.000000   1.000000
     13        -36.483247      -36.500708   1.000000   1.000000
     14        -36.480055      -36.484861   1.000000   1.000000
     15        -36.470235      -36.473706   1.000000   1.000000
     16        -36.462128      -36.473210   1.000000   1.000000
     17        -36.461068      -36.464444   1.000000   1.000000
     18        -36.449624      -36.463890   1.000000   1.000000
     19        -36.429996      -36.451658   1.000000   1.000000
     20        -36.423579      -36.446380   1.000000   1.000000
     21        -36.417430      -36.439827   1.000000   1.000000
     22        -36.416208      -36.437717   1.000000   1.000000
     23        -36.407692      -36.429773   1.000000   1.000000
     24        -36.388050      -36.411742   1.000000   1.000000
     25        -36.381674      -36.406333   1.000000   1.000000
     26        -36.373182      -36.398050   1.000000   1.000000
     27        -36.368877      -36.393667   1.000000   1.000000
     28        -36.365591      -36.390679   1.000000   1.000000
     29        -36.363130      -36.387846   1.000000   1.000000
     30        -36.361950      -36.387039   1.000000   1.000000
     31        -36.356795      -36.381836   1.000000   1.000000
     32        -36.355952      -36.380822   1.000000   1.000000
     33        -21.854004      -21.819685   1.000000   1.000000
     34        -21.836354      -21.797156   1.000000   1.000000
     35        -21.775340      -21.698775   1.000000   1.000000
     36        -21.711271      -21.688619   1.000000   1.000000
     37        -21.704517      -21.629248   1.000000   1.000000
     38        -21.644459      -21.566565   1.000000   1.000000
     39        -21.589882      -21.536665   1.000000   1.000000
     40        -21.585917      -21.507077   1.000000   1.000000
     41        -21.548528      -21.485190   1.000000   1.000000
     42        -21.534594      -21.480230   1.000000   1.000000
     43        -21.510487      -21.430698   1.000000   1.000000
     44        -21.463962      -21.393010   1.000000   1.000000
     45        -21.461357      -21.360491   1.000000   1.000000
     46        -21.442629      -21.350050   1.000000   1.000000
     47        -21.428911      -21.344269   1.000000   1.000000
     48        -21.425045      -21.324446   1.000000   1.000000
     49        -21.423885      -21.307246   1.000000   1.000000
     50        -21.409520      -21.293340   1.000000   1.000000
     51        -21.408103      -21.273381   1.000000   1.000000
     52        -21.392000      -21.263290   1.000000   1.000000
     53        -21.371687      -21.256640   1.000000   1.000000
     54        -21.368883      -21.246439   1.000000   1.000000
     55        -21.354041      -21.237970   1.000000   1.000000
     56        -21.342679      -21.222576   1.000000   1.000000
     57        -21.333756      -21.211048   1.000000   1.000000
     58        -21.332213      -21.208230   1.000000   1.000000
     59        -21.299789      -21.199092   1.000000   1.000000
     60        -21.283417      -21.177973   1.000000   1.000000
     61        -21.245885      -21.140567   1.000000   1.000000
     62        -21.228174      -21.085782   1.000000   1.000000
     63        -21.219626      -21.082231   1.000000   1.000000
     64        -21.093866      -21.073884   1.000000   1.000000
     65        -21.092044      -21.071969   1.000000   1.000000
     66        -21.025720      -21.004108   1.000000   1.000000
     67        -21.010550      -20.983519   1.000000   1.000000
     68        -21.005958      -20.902611   1.000000   1.000000
     69        -20.990001      -20.885868   1.000000   1.000000
     70        -20.987156      -20.880690   1.000000   1.000000
     71        -20.971825      -20.824824   1.000000   1.000000
     72        -20.967259      -20.811538   1.000000   1.000000
     73        -20.966422      -20.794939   1.000000   1.000000
     74        -20.950875      -20.784835   1.000000   1.000000
     75        -20.940609      -20.728531   1.000000   1.000000
     76        -20.936608      -20.640150   1.000000   1.000000
     77        -20.921272      -20.596844   1.000000   1.000000
     78        -20.906556      -20.593061   1.000000   1.000000
     79        -20.896459      -20.562627   1.000000   1.000000
     80        -20.889447      -20.528961   1.000000   1.000000
     81        -20.875072      -20.517961   1.000000   1.000000
     82        -20.872373      -20.355175   1.000000   1.000000
     83        -20.869446      -20.317376   1.000000   1.000000
     84        -20.858502      -20.315126   1.000000   1.000000
     85        -20.807673      -20.294170   1.000000   1.000000
     86        -20.730717      -20.286876   1.000000   1.000000
     87        -20.725323      -20.258139   1.000000   1.000000
     88        -20.696906      -20.243334   1.000000   1.000000
     89        -20.680157      -20.240471   1.000000   1.000000
     90        -20.637576      -20.220602   1.000000   1.000000
     91        -20.558709      -20.208933   1.000000   1.000000
     92        -20.512274      -20.196873   1.000000   1.000000
     93        -20.509038      -20.166702   1.000000   1.000000
     94        -20.505955      -20.146002   1.000000   1.000000
     95        -20.500962      -20.122401   1.000000   1.000000
     96        -20.488729      -20.091419   1.000000   1.000000
     97        -20.486964      -20.038703   1.000000   1.000000
     98        -20.346177      -19.979717   1.000000   1.000000
     99        -20.313294      -19.888451   1.000000   1.000000
    100        -20.296895      -19.881737   1.000000   1.000000
    101        -20.269711      -19.832487   1.000000   1.000000
    102        -20.265637      -19.824866   1.000000   1.000000
    103        -20.263401      -19.803434   1.000000   1.000000
    104        -20.215270      -19.562573   1.000000   1.000000
    105        -20.208997      -19.524163   1.000000   1.000000
    106        -20.192373      -19.458290   1.000000   1.000000
    107        -20.153795      -19.452842   1.000000   1.000000
    108        -20.126593      -19.438629   1.000000   1.000000
    109        -20.101943      -19.434133   1.000000   1.000000
    110        -20.090604      -19.417729   1.000000   1.000000
    111        -20.052387      -19.412411   1.000000   1.000000
    112        -19.980260      -19.396892   1.000000   1.000000
    113        -19.925280      -19.338064   1.000000   1.000000
    114        -19.910685      -19.332392   1.000000   1.000000
    115        -19.716309      -19.313904   1.000000   1.000000
    116        -19.684711      -19.264261   1.000000   1.000000
    117        -19.673844      -19.243520   1.000000   1.000000
    118        -19.547925      -19.163964   1.000000   1.000000
    119        -19.436168      -19.082752   1.000000   1.000000
    120        -19.415255      -19.071960   1.000000   1.000000
    121        -19.336275      -19.071285   1.000000   1.000000
    122        -19.238850      -19.055835   1.000000   1.000000
    123        -19.103632      -19.035169   1.000000   1.000000
    124        -19.087180      -19.002208   1.000000   1.000000
    125        -19.069989      -18.996409   1.000000   1.000000
    126        -19.065102      -18.971304   1.000000   1.000000
    127        -19.060438      -18.962046   1.000000   1.000000
    128        -19.049200      -18.958444   1.000000   1.000000
    129        -19.019560      -18.946241   1.000000   1.000000
    130        -19.004772      -18.941767   1.000000   1.000000
    131        -18.994894      -18.927015   1.000000   1.000000
    132        -18.975850      -18.919469   1.000000   1.000000
    133        -18.965248      -18.911532   1.000000   1.000000
    134        -18.952547      -18.908492   1.000000   1.000000
    135        -18.943464      -18.906935   1.000000   1.000000
    136        -18.941507      -18.844308   1.000000   1.000000
    137        -18.927571      -18.829713   1.000000   1.000000
    138        -18.921624      -18.820714   1.000000   1.000000
    139        -18.911909      -18.812667   1.000000   1.000000
    140        -18.904539      -18.805947   1.000000   1.000000
    141        -18.894164      -18.800542   1.000000   1.000000
    142        -18.869332      -18.799446   1.000000   1.000000
    143        -18.862262      -18.794939   1.000000   1.000000
    144        -18.855390      -18.784859   1.000000   1.000000
    145        -18.843960      -18.741995   1.000000   1.000000
    146        -18.842971      -18.728911   1.000000   1.000000
    147        -18.802058      -18.684518   1.000000   1.000000
    148        -18.794020      -18.675464   1.000000   1.000000
    149        -18.792748      -18.644326   1.000000   1.000000
    150        -18.787667      -18.615610   1.000000   1.000000
    151        -18.781593      -18.550974   1.000000   1.000000
    152        -18.780237      -18.528047   1.000000   1.000000
    153        -18.775270      -18.462172   1.000000   1.000000
    154        -18.766953      -18.442554   1.000000   1.000000
    155        -18.737596      -18.410116   1.000000   1.000000
    156        -18.704972      -18.396904   1.000000   1.000000
    157        -18.672398      -18.361545   1.000000   1.000000
    158        -18.668856      -18.237756   1.000000   1.000000
    159        -18.524886      -18.225658   1.000000   1.000000
    160        -18.520784      -18.144835   1.000000   1.000000
    161        -18.517483      -17.840306   1.000000   1.000000
    162        -18.511269      -17.758164   1.000000   1.000000
    163        -18.505322      -17.736512   1.000000   1.000000
    164        -18.504890      -17.645112   1.000000   1.000000
    165        -18.468978      -17.641316   1.000000   1.000000
    166        -18.461514      -17.636127   1.000000   1.000000
    167        -18.440537      -17.621904   1.000000   1.000000
    168        -18.434126      -17.609008   1.000000   1.000000
    169        -18.414586      -17.557189   1.000000   1.000000
    170        -18.410223      -17.537793   1.000000   1.000000
    171        -18.391125      -17.517055   1.000000   1.000000
    172        -18.266036      -17.516015   1.000000   1.000000
    173        -18.224742      -17.472827   1.000000   1.000000
    174        -18.075774      -17.328672   1.000000   1.000000
    175        -17.985021      -17.297333   1.000000   1.000000
    176        -17.866789      -17.286597   1.000000   1.000000
    177        -17.764336      -17.281340   1.000000   1.000000
    178        -17.648616      -17.273027   1.000000   1.000000
    179        -17.622353      -17.262502   1.000000   1.000000
    180        -17.493817      -17.258606   1.000000   1.000000
    181        -17.487605      -17.234686   1.000000   1.000000
    182        -17.486092      -17.192088   1.000000   1.000000
    183        -17.464819      -17.172213   1.000000   1.000000
    184        -17.456237      -17.026329   1.000000   1.000000
    185        -17.403194      -16.959914   1.000000   1.000000
    186        -17.325970      -16.935774   1.000000   1.000000
    187        -17.287592      -16.930582   1.000000   1.000000
    188        -17.256491      -16.910235   1.000000   1.000000
    189        -17.225351      -16.881864   1.000000   1.000000
    190        -17.211271      -16.865698   1.000000   1.000000
    191        -17.098814      -16.813721   1.000000   1.000000
    192        -17.092715      -16.812403   1.000000   1.000000
    193        -17.071166      -16.795204   1.000000   1.000000
    194        -17.022926      -16.763094   1.000000   1.000000
    195        -16.994959      -16.740900   1.000000   1.000000
    196        -16.908754      -16.728868   1.000000   1.000000
    197        -16.905506      -16.727545   1.000000   1.000000
    198        -16.882825      -16.722879   1.000000   1.000000
    199        -16.876744      -16.704418   1.000000   1.000000
    200        -16.844283      -16.703104   1.000000   1.000000
    201        -16.817371      -16.638450   1.000000   1.000000
    202        -16.572923      -16.375940   1.000000   1.000000
    203        -16.545614      -16.346020   1.000000   1.000000
    204        -16.527105      -16.342843   1.000000   1.000000
    205        -16.486263      -16.303579   1.000000   1.000000
    206        -16.446300      -16.282697   1.000000   1.000000
    207        -16.435072      -16.265562   1.000000   1.000000
    208        -16.433425      -16.261754   1.000000   1.000000
    209        -16.433081      -16.259663   1.000000   1.000000
    210        -16.427576      -16.257431   1.000000   1.000000
    211        -16.425529      -16.255692   1.000000   1.000000
    212        -16.424903      -16.254681   1.000000   1.000000
    213        -16.422611      -16.245700   1.000000   1.000000
    214        -16.381443      -16.223371   1.000000   1.000000
    215        -16.313459      -16.214194   1.000000   1.000000
    216        -16.274773      -16.200626   1.000000   1.000000
    217        -16.200433      -16.137997   1.000000   1.000000
    218        -16.198739      -16.135494   1.000000   1.000000
    219        -16.135450      -16.088294   1.000000   1.000000
    220        -16.119634      -16.072754   1.000000   1.000000
    221        -16.008175      -15.889103   1.000000   1.000000
    222        -15.993238      -15.855304   1.000000   1.000000
    223        -15.951696      -15.793736   1.000000   1.000000
    224        -15.694145      -15.588347   1.000000   1.000000
    225        -15.636638      -15.552429   1.000000   1.000000
    226        -15.537486      -15.480721   1.000000   1.000000
    227         -9.976395       -9.976733   1.000000   1.000000
    228         -9.969542       -9.969886   1.000000   1.000000
    229         -9.767563       -9.767978   1.000000   1.000000
    230         -9.761010       -9.761421   1.000000   1.000000
    231         -9.629760       -9.629894   1.000000   1.000000
    232         -9.599640       -9.600071   1.000000   1.000000
    233         -9.584995       -9.585422   1.000000   1.000000
    234         -9.581321       -9.581604   1.000000   1.000000
    235         -9.545410       -9.545697   1.000000   1.000000
    236         -9.533745       -9.534053   1.000000   1.000000
    237         -9.526973       -9.527146   1.000000   1.000000
    238         -9.498746       -9.498896   1.000000   1.000000
    239         -9.458956       -9.459410   1.000000   1.000000
    240         -9.440053       -9.440468   1.000000   1.000000
    241         -9.257956       -9.258360   1.000000   1.000000
    242         -9.247663       -9.248055   1.000000   1.000000
    243         -9.108981       -9.109842   1.000000   1.000000
    244         -9.105349       -9.106236   1.000000   1.000000
    245         -9.009475       -9.009794   1.000000   1.000000
    246         -8.974512       -8.974824   1.000000   1.000000
    247         -7.761939       -7.761626   1.000000   1.000000
    248         -7.703197       -7.702620   1.000000   1.000000
    249         -7.209745       -7.209518   1.000000   1.000000
    250         -7.173899       -7.173749   1.000000   1.000000
    251         -6.720349       -6.530185   1.000000   1.000000
    252         -6.716949       -6.522439   1.000000   1.000000
    253         -6.710876       -6.456206   1.000000   1.000000
    254         -6.658563       -6.413371   1.000000   1.000000
    255         -6.653367       -6.376501   1.000000   1.000000
    256         -6.394197       -6.281130   1.000000   1.000000
    257         -6.326494       -6.255112   1.000000   1.000000
    258         -6.310099       -6.127336   1.000000   1.000000
    259         -6.309714       -6.120824   1.000000   1.000000
    260         -6.308669       -6.092106   1.000000   1.000000
    261         -6.306026       -6.077246   1.000000   1.000000
    262         -6.304742       -6.051035   1.000000   1.000000
    263         -6.291618       -6.043059   1.000000   1.000000
    264         -6.259852       -6.020253   1.000000   1.000000
    265         -6.249198       -6.015453   1.000000   1.000000
    266         -6.242552       -5.994746   1.000000   1.000000
    267         -6.239542       -5.986587   1.000000   1.000000
    268         -6.225449       -5.979264   1.000000   1.000000
    269         -6.219515       -5.973998   1.000000   1.000000
    270         -6.217815       -5.941960   1.000000   1.000000
    271         -6.215194       -5.925673   1.000000   1.000000
    272         -6.214670       -5.919177   1.000000   1.000000
    273         -6.209963       -5.884776   1.000000   1.000000
    274         -6.201639       -5.882128   1.000000   1.000000
    275         -6.196578       -5.856263   1.000000   1.000000
    276         -6.183216       -5.845084   1.000000   1.000000
    277         -6.177615       -5.799590   1.000000   1.000000
    278         -6.172725       -5.765332   1.000000   1.000000
    279         -6.159162       -5.749930   1.000000   1.000000
    280         -6.153167       -5.736645   1.000000   1.000000
    281         -6.152213       -5.720835   1.000000   1.000000
    282         -6.151009       -5.714142   1.000000   1.000000
    283         -6.150257       -5.706532   1.000000   1.000000
    284         -6.146493       -5.682177   1.000000   1.000000
    285         -6.126162       -5.678998   1.000000   1.000000
    286         -6.101773       -5.666639   1.000000   1.000000
    287         -6.075557       -5.654553   1.000000   1.000000
    288         -6.056974       -5.649778   1.000000   1.000000
    289         -6.055125       -5.641714   1.000000   1.000000
    290         -6.051630       -5.633474   1.000000   1.000000
    291         -6.016524       -5.626380   1.000000   1.000000
    292         -6.009097       -5.605498   1.000000   1.000000
    293         -5.975481       -5.593774   1.000000   1.000000
    294         -5.974907       -5.580552   1.000000   1.000000
    295         -5.961709       -5.571580   1.000000   1.000000
    296         -5.930712       -5.561071   1.000000   1.000000
    297         -5.926443       -5.530261   1.000000   1.000000
    298         -5.910058       -5.527656   1.000000   1.000000
    299         -5.907011       -5.514146   1.000000   1.000000
    300         -5.844821       -5.505641   1.000000   1.000000
    301         -5.838841       -5.502621   1.000000   1.000000
    302         -5.778916       -5.482791   1.000000   1.000000
    303         -5.766908       -5.470358   1.000000   1.000000
    304         -5.727191       -5.457812   1.000000   1.000000
    305         -5.717887       -5.440964   1.000000   1.000000
    306         -5.713548       -5.435278   1.000000   1.000000
    307         -5.708436       -5.423720   1.000000   1.000000
    308         -5.702381       -5.391743   1.000000   1.000000
    309         -5.698380       -5.375490   1.000000   1.000000
    310         -5.685931       -5.350862   1.000000   1.000000
    311         -5.670604       -5.333634   1.000000   1.000000
    312         -5.666231       -5.325177   1.000000   1.000000
    313         -5.660644       -5.316395   1.000000   1.000000
    314         -5.655392       -5.312118   1.000000   1.000000
    315         -5.642442       -5.305519   1.000000   1.000000
    316         -5.635879       -5.299446   1.000000   1.000000
    317         -5.632499       -5.288095   1.000000   1.000000
    318         -5.619342       -5.277325   1.000000   1.000000
    319         -5.612316       -5.273335   1.000000   1.000000
    320         -5.607260       -5.266799   1.000000   1.000000
    321         -5.605771       -5.239313   1.000000   1.000000
    322         -5.604252       -5.216563   1.000000   1.000000
    323         -5.597464       -5.207125   1.000000   1.000000
    324         -5.591504       -5.160949   1.000000   1.000000
    325         -5.587372       -5.102289   1.000000   1.000000
    326         -5.578383       -5.074208   1.000000   1.000000
    327         -5.574815       -5.072825   1.000000   1.000000
    328         -5.569297       -5.065507   1.000000   1.000000
    329         -5.545205       -5.053839   1.000000   1.000000
    330         -5.533571       -5.049711   1.000000   1.000000
    331         -5.511230       -5.002033   1.000000   1.000000
    332         -5.498856       -4.899899   1.000000   1.000000
    333         -5.497044       -4.855778   1.000000   1.000000
    334         -5.482362       -4.850853   1.000000   1.000000
    335         -5.462384       -4.832283   1.000000   1.000000
    336         -5.448118       -4.827974   1.000000   1.000000
    337         -5.406100       -4.812852   1.000000   1.000000
    338         -5.389508       -4.783199   1.000000   1.000000
    339         -5.374622       -4.774180   1.000000   1.000000
    340         -5.371733       -4.748127   1.000000   1.000000
    341         -5.354104       -4.740908   1.000000   1.000000
    342         -5.352175       -4.737652   1.000000   1.000000
    343         -5.340267       -4.682395   1.000000   1.000000
    344         -5.331136       -4.681332   1.000000   1.000000
    345         -5.321043       -4.659179   1.000000   1.000000
    346         -5.311087       -4.647397   1.000000   1.000000
    347         -5.296403       -4.614765   1.000000   1.000000
    348         -5.294086       -4.611995   1.000000   1.000000
    349         -5.281648       -4.601584   1.000000   1.000000
    350         -5.280151       -4.583165   1.000000   1.000000
    351         -5.265862       -4.578311   1.000000   1.000000
    352         -5.256697       -4.565413   1.000000   1.000000
    353         -5.251769       -4.554422   1.000000   1.000000
    354         -5.247448       -4.507413   1.000000   1.000000
    355         -5.222171       -4.484982   1.000000   1.000000
    356         -5.213150       -4.469825   1.000000   1.000000
    357         -5.145700       -4.447218   1.000000   1.000000
    358         -5.137660       -4.397718   1.000000   1.000000
    359         -5.114475       -4.375556   1.000000   1.000000
    360         -5.105859       -4.372461   1.000000   1.000000
    361         -5.099429       -4.369907   1.000000   1.000000
    362         -5.083051       -4.360570   1.000000   1.000000
    363         -5.078048       -4.344426   1.000000   1.000000
    364         -5.017224       -4.342904   1.000000   1.000000
    365         -4.994784       -4.331150   1.000000   1.000000
    366         -4.986289       -4.322354   1.000000   1.000000
    367         -4.977688       -4.317033   1.000000   1.000000
    368         -4.967889       -4.304574   1.000000   1.000000
    369         -4.964255       -4.280589   1.000000   1.000000
    370         -4.951619       -4.275560   1.000000   1.000000
    371         -4.921891       -4.273701   1.000000   1.000000
    372         -4.842386       -4.257838   1.000000   1.000000
    373         -4.840726       -4.235683   1.000000   1.000000
    374         -4.808710       -4.228918   1.000000   1.000000
    375         -4.794719       -4.184480   1.000000   1.000000
    376         -4.786487       -4.148735   1.000000   1.000000
    377         -4.782564       -4.126471   1.000000   1.000000
    378         -4.767583       -4.108191   1.000000   1.000000
    379         -4.764464       -4.105699   1.000000   1.000000
    380         -4.756683       -4.097861   1.000000   1.000000
    381         -4.743997       -4.090765   1.000000   1.000000
    382         -4.739017       -4.077740   1.000000   1.000000
    383         -4.726640       -4.068083   1.000000   1.000000
    384         -4.701086       -4.059770   1.000000   1.000000
    385         -4.681112       -4.049496   1.000000   1.000000
    386         -4.661282       -4.040482   1.000000   1.000000
    387         -4.654130       -4.033570   1.000000   1.000000
    388         -4.652181       -4.033367   1.000000   1.000000
    389         -4.651167       -4.015554   1.000000   1.000000
    390         -4.624427       -4.003486   1.000000   1.000000
    391         -4.622076       -4.000033   1.000000   1.000000
    392         -4.550972       -3.984606   1.000000   1.000000
    393         -4.536986       -3.975044   1.000000   1.000000
    394         -4.523994       -3.961435   1.000000   1.000000
    395         -4.516321       -3.956374   1.000000   1.000000
    396         -4.478088       -3.948519   1.000000   1.000000
    397         -4.471258       -3.937515   1.000000   1.000000
    398         -4.458472       -3.935439   1.000000   1.000000
    399         -4.434286       -3.917250   1.000000   1.000000
    400         -4.388486       -3.910824   1.000000   1.000000
    401         -4.381323       -3.897224   1.000000   1.000000
    402         -4.366194       -3.865253   1.000000   1.000000
    403         -4.351651       -3.857571   1.000000   1.000000
    404         -4.349046       -3.843067   1.000000   1.000000
    405         -4.344645       -3.839278   1.000000   1.000000
    406         -4.338127       -3.831680   1.000000   1.000000
    407         -4.322846       -3.826729   1.000000   1.000000
    408         -4.315951       -3.822454   1.000000   1.000000
    409         -4.302346       -3.818444   1.000000   1.000000
    410         -4.285544       -3.816953   1.000000   1.000000
    411         -4.269500       -3.811158   1.000000   1.000000
    412         -4.266174       -3.800373   1.000000   1.000000
    413         -4.257365       -3.793460   1.000000   1.000000
    414         -4.245328       -3.783991   1.000000   1.000000
    415         -4.239800       -3.778856   1.000000   1.000000
    416         -4.238281       -3.766684   1.000000   1.000000
    417         -4.228455       -3.754884   1.000000   1.000000
    418         -4.193806       -3.750518   1.000000   1.000000
    419         -4.190056       -3.728790   1.000000   1.000000
    420         -4.187323       -3.726492   1.000000   1.000000
    421         -4.157085       -3.701983   1.000000   1.000000
    422         -4.151673       -3.696292   1.000000   1.000000
    423         -4.135727       -3.690667   1.000000   1.000000
    424         -4.130026       -3.677407   1.000000   1.000000
    425         -4.103564       -3.672015   1.000000   1.000000
    426         -4.089889       -3.668844   1.000000   1.000000
    427         -4.079676       -3.656589   1.000000   1.000000
    428         -4.069691       -3.647316   1.000000   1.000000
    429         -4.041526       -3.635450   1.000000   1.000000
    430         -4.034317       -3.632236   1.000000   1.000000
    431         -4.018005       -3.625093   1.000000   1.000000
    432         -4.014839       -3.618116   1.000000   1.000000
    433         -4.006402       -3.614268   1.000000   1.000000
    434         -3.999777       -3.581170   1.000000   1.000000
    435         -3.998436       -3.575106   1.000000   1.000000
    436         -3.962584       -3.551868   1.000000   1.000000
    437         -3.958650       -3.530994   1.000000   1.000000
    438         -3.949119       -3.516133   1.000000   1.000000
    439         -3.946322       -3.513214   1.000000   1.000000
    440         -3.942315       -3.505123   1.000000   1.000000
    441         -3.938541       -3.494896   1.000000   1.000000
    442         -3.927754       -3.491918   1.000000   1.000000
    443         -3.921503       -3.486261   1.000000   1.000000
    444         -3.908197       -3.468948   1.000000   1.000000
    445         -3.903266       -3.453643   1.000000   1.000000
    446         -3.885561       -3.450473   1.000000   1.000000
    447         -3.880991       -3.439125   1.000000   1.000000
    448         -3.879287       -3.409672   1.000000   1.000000
    449         -3.875610       -3.409381   1.000000   1.000000
    450         -3.868079       -3.407947   1.000000   1.000000
    451         -3.863290       -3.399446   1.000000   1.000000
    452         -3.858176       -3.391564   1.000000   1.000000
    453         -3.857441       -3.390263   1.000000   1.000000
    454         -3.826673       -3.365918   1.000000   1.000000
    455         -3.805083       -3.364725   1.000000   1.000000
    456         -3.802285       -3.356093   1.000000   1.000000
    457         -3.796298       -3.354942   1.000000   1.000000
    458         -3.787182       -3.344436   1.000000   1.000000
    459         -3.774026       -3.339637   1.000000   1.000000
    460         -3.770567       -3.332271   1.000000   1.000000
    461         -3.758963       -3.324797   1.000000   1.000000
    462         -3.755444       -3.319864   1.000000   1.000000
    463         -3.740676       -3.292097   1.000000   1.000000
    464         -3.732459       -3.289648   1.000000   1.000000