 running  192 mpi-ranks, on    1 nodes
 distrk:  each k-point on  192 cores,    1 groups
 distr:  one band on    4 cores,   48 groups
 vasp.6.4.3 19Mar24 (build Mar 01 2025 18:03:59) gamma-only                     
  
 POSCAR found type information on POSCAR CeO Ir
 POSCAR found :  3 types and     134 ions
 Reading from existing POTCAR
 scaLAPACK will be used
 -----------------------------------------------------------------------------
|                                                                             |
|           W    W    AA    RRRRR   N    N  II  N    N   GGGG   !!!           |
|           W    W   A  A   R    R  NN   N  II  NN   N  G    G  !!!           |
|           W    W  A    A  R    R  N N  N  II  N N  N  G       !!!           |
|           W WW W  AAAAAA  RRRRR   N  N N  II  N  N N  G  GGG   !            |
|           WW  WW  A    A  R   R   N   NN  II  N   NN  G    G                |
|           W    W  A    A  R    R  N    N  II  N    N   GGGG   !!!           |
|                                                                             |
|     For optimal performance we recommend to set                             |
|       NCORE = 2 up to number-of-cores-per-socket                            |
|     NCORE specifies how many cores store one orbital (NPAR=cpu/NCORE).      |
|     This setting can greatly improve the performance of VASP for DFT.       |
|     The default, NCORE=1 might be grossly inefficient on modern             |
|     multi-core architectures or massively parallel machines. Do your        |
|     own testing! More info at https://www.vasp.at/wiki/index.php/NCORE      |
|     Unfortunately you need to use the default for GW and RPA                |
|     calculations (for HF NCORE is supported but not extensively tested      |
|     yet).                                                                   |
|                                                                             |
 -----------------------------------------------------------------------------

 Reading from existing POTCAR
 -----------------------------------------------------------------------------
|                                                                             |
|               ----> ADVICE to this user running VASP <----                  |
|                                                                             |
|     You have a (more or less) 'large supercell' and for larger cells it     |
|     might be more efficient to use real-space projection operators.         |
|     Therefore, try LREAL= Auto in the INCAR file.                           |
|     Mind: For very accurate calculation, you might also keep the            |
|     reciprocal projection scheme (i.e. LREAL=.FALSE.).                      |
|                                                                             |
 -----------------------------------------------------------------------------

 LDA part: xc-table for (Slater+PW92), standard interpolation
 POSCAR, INCAR and KPOINTS ok, starting setup
 FFT: planning ... GRIDC
 FFT: planning ... GRID_SOFT
 FFT: planning ... GRID
 WAVECAR not read
 WARNING: random wavefunctions but no delay for mixing, default for NELMDL
 entering main loop
       N       E                     dE             d eps       ncg     rms          rms(c)
DAV:   1     0.184976222771E+05    0.18498E+05   -0.45354E+05  2688   0.164E+03
DAV:   2     0.581774092657E+04   -0.12680E+05   -0.11287E+05  3072   0.434E+02
DAV:   3     0.241122050210E+03   -0.55766E+04   -0.52261E+04  3504   0.262E+02
DAV:   4    -0.106220634421E+04   -0.13033E+04   -0.12457E+04  3744   0.124E+02
DAV:   5    -0.116866092612E+04   -0.10645E+03   -0.10141E+03  4416   0.444E+01    0.192E+02
DAV:   6    -0.119273099971E+04   -0.24070E+02   -0.39122E+03  4368   0.714E+01    0.464E+02
DAV:   7    -0.920715527900E+03    0.27202E+03   -0.27608E+03  4656   0.786E+01    0.268E+02
DAV:   8    -0.122555730117E+04   -0.30484E+03   -0.24663E+03  4656   0.677E+01    0.467E+02
DAV:   9    -0.134962511270E+04   -0.12407E+03   -0.23948E+03  4176   0.150E+02    0.427E+02
DAV:  10    -0.115636447884E+04    0.19326E+03   -0.73811E+02  4224   0.942E+01    0.334E+02
DAV:  11    -0.132902682786E+04   -0.17266E+03   -0.36698E+03  3984   0.169E+02    0.412E+02
DAV:  12    -0.120766156884E+04    0.12137E+03   -0.54095E+02  4272   0.542E+01    0.254E+02
DAV:  13    -0.100160108474E+04    0.20606E+03   -0.28512E+02  3936   0.823E+01    0.178E+02
DAV:  14    -0.916313879188E+03    0.85287E+02   -0.20107E+02  4368   0.368E+01    0.149E+02
DAV:  15    -0.887723385205E+03    0.28590E+02   -0.43949E+02  3840   0.653E+01    0.776E+01
DAV:  16    -0.879240092846E+03    0.84833E+01   -0.37716E+01  4464   0.128E+01    0.690E+01
DAV:  17    -0.881404765655E+03   -0.21647E+01   -0.35421E+01  4032   0.745E+00    0.623E+01
DAV:  18    -0.884486931469E+03   -0.30822E+01   -0.59781E+01  4176   0.915E+00    0.102E+02
DAV:  19    -0.876324431908E+03    0.81625E+01   -0.15055E+02  3792   0.203E+01    0.567E+01
DAV:  20    -0.878008310663E+03   -0.16839E+01   -0.39246E+01  4176   0.750E+00    0.475E+01
DAV:  21    -0.879033281559E+03   -0.10250E+01   -0.32112E+01  4272   0.916E+00    0.408E+01
DAV:  22    -0.883678272975E+03   -0.46450E+01   -0.21663E+01  4560   0.561E+00    0.351E+01
DAV:  23    -0.885500821896E+03   -0.18225E+01   -0.68823E+00  4656   0.393E+00    0.303E+01
DAV:  24    -0.886979100658E+03   -0.14783E+01   -0.36994E+00  4464   0.325E+00    0.272E+01
DAV:  25    -0.888865578498E+03   -0.18865E+01   -0.68482E+00  4608   0.325E+00    0.248E+01
DAV:  26    -0.891381360821E+03   -0.25158E+01   -0.74535E+00  4464   0.378E+00    0.208E+01
DAV:  27    -0.892723085135E+03   -0.13417E+01   -0.43303E+00  4416   0.288E+00    0.188E+01
DAV:  28    -0.894544722150E+03   -0.18216E+01   -0.24226E+00  4464   0.222E+00    0.173E+01
DAV:  29    -0.895192636786E+03   -0.64791E+00   -0.10898E+00  4368   0.137E+00    0.170E+01
DAV:  30    -0.895208402767E+03   -0.15766E-01   -0.11752E-01  3696   0.518E-01    0.168E+01
DAV:  31    -0.895406156385E+03   -0.19775E+00   -0.58356E-02  5184   0.392E-01    0.169E+01
DAV:  32    -0.895255345834E+03    0.15081E+00   -0.30883E-02  4320   0.290E-01    0.168E+01
DAV:  33    -0.895274711645E+03   -0.19366E-01   -0.15068E-01  4128   0.620E-01    0.170E+01
DAV:  34    -0.895239121560E+03    0.35590E-01   -0.18018E-01  4368   0.662E-01    0.175E+01
DAV:  35    -0.895380742022E+03   -0.14162E+00   -0.31767E-02  3648   0.276E-01    0.174E+01
DAV:  36    -0.896639425596E+03   -0.12587E+01   -0.88702E-01  4032   0.161E+00    0.163E+01
DAV:  37    -0.900076433600E+03   -0.34370E+01   -0.57080E+00  4080   0.333E+00    0.174E+01
DAV:  38    -0.900754091338E+03   -0.67766E+00   -0.16005E+00  4416   0.178E+00    0.139E+01
DAV:  39    -0.902359768890E+03   -0.16057E+01   -0.90003E-01  4128   0.110E+00    0.139E+01
DAV:  40    -0.903248853777E+03   -0.88908E+00   -0.11177E+00  4320   0.137E+00    0.124E+01
DAV:  41    -0.904926405643E+03   -0.16776E+01   -0.45153E-01  4080   0.108E+00    0.109E+01
DAV:  42    -0.906509838213E+03   -0.15834E+01   -0.55412E-01  4176   0.114E+00    0.951E+00
DAV:  43    -0.907751226962E+03   -0.12414E+01   -0.45985E-01  3936   0.865E-01    0.815E+00
DAV:  44    -0.908873113158E+03   -0.11219E+01   -0.45052E-01  3984   0.884E-01    0.706E+00
DAV:  45    -0.909799034538E+03   -0.92592E+00   -0.36533E-01  4128   0.772E-01    0.620E+00
DAV:  46    -0.910184133144E+03   -0.38510E+00   -0.14400E-01  3888   0.549E-01    0.565E+00
DAV:  47    -0.910636974586E+03   -0.45284E+00   -0.13529E-01  4368   0.460E-01    0.520E+00
DAV:  48    -0.911012760289E+03   -0.37579E+00   -0.12857E-01  4080   0.461E-01    0.501E+00
DAV:  49    -0.911139007739E+03   -0.12625E+00   -0.89012E-02  3984   0.325E-01    0.476E+00
DAV:  50    -0.911359488832E+03   -0.22048E+00   -0.30276E-01  4032   0.681E-01    0.497E+00
DAV:  51    -0.911503801884E+03   -0.14431E+00   -0.22259E-01  4464   0.122E+00    0.483E+00
DAV:  52    -0.911504308780E+03   -0.50690E-03   -0.70890E-02  4560   0.531E-01    0.472E+00
DAV:  53    -0.911503456555E+03    0.85223E-03   -0.69057E-03  4080   0.122E-01    0.475E+00
DAV:  54    -0.911512340482E+03   -0.88839E-02   -0.31073E-03  4752   0.105E-01    0.469E+00
DAV:  55    -0.911553652412E+03   -0.41312E-01   -0.16643E-02  4512   0.202E-01    0.442E+00
DAV:  56    -0.911783190259E+03   -0.22954E+00   -0.22488E+00  4608   0.301E+00    0.900E+00
DAV:  57    -0.911694610432E+03    0.88580E-01   -0.83931E-01  4176   0.125E+00    0.802E+00
DAV:  58    -0.911557686651E+03    0.13692E+00   -0.14031E-01  4608   0.765E-01    0.694E+00
DAV:  59    -0.911464191454E+03    0.93495E-01   -0.23874E-01  4416   0.946E-01    0.488E+00
DAV:  60    -0.911483294520E+03   -0.19103E-01   -0.23334E-01  4416   0.950E-01    0.461E+00
DAV:  61    -0.911511657748E+03   -0.28363E-01   -0.15511E+00  3936   0.188E+00    0.877E+00
DAV:  62    -0.911518727859E+03   -0.70701E-02   -0.41137E-01  4560   0.102E+00    0.466E+00
DAV:  63    -0.911749524113E+03   -0.23080E+00   -0.12632E-01  4128   0.569E-01    0.551E+00
DAV:  64    -0.911976106174E+03   -0.22658E+00   -0.21442E-01  4272   0.502E-01    0.674E+00
DAV:  65    -0.911957905653E+03    0.18201E-01   -0.56824E-02  4224   0.331E-01    0.547E+00
DAV:  66    -0.911974185761E+03   -0.16280E-01   -0.32636E-02  4320   0.330E-01    0.560E+00
DAV:  67    -0.911996151653E+03   -0.21966E-01   -0.32037E-02  4224   0.295E-01    0.498E+00
DAV:  68    -0.911990671353E+03    0.54803E-02   -0.63943E-02  4368   0.307E-01    0.287E+00
DAV:  69    -0.912055259326E+03   -0.64588E-01   -0.19361E-02  3984   0.216E-01    0.282E+00
DAV:  70    -0.912104105553E+03   -0.48846E-01   -0.14467E-02  4176   0.195E-01    0.249E+00
DAV:  71    -0.912181810946E+03   -0.77705E-01   -0.34536E-02  4272   0.445E-01    0.267E+00
DAV:  72    -0.912215602396E+03   -0.33791E-01   -0.11015E-02  3936   0.160E-01    0.263E+00
DAV:  73    -0.912241982601E+03   -0.26380E-01   -0.48571E-02  4512   0.219E-01    0.129E+00
DAV:  74    -0.912270470013E+03   -0.28487E-01   -0.15270E-02  3984   0.197E-01    0.807E-01
DAV:  75    -0.912291332532E+03   -0.20863E-01   -0.98126E-03  4176   0.157E-01    0.646E-01
DAV:  76    -0.912295215197E+03   -0.38827E-02   -0.47968E-03  3984   0.965E-02    0.718E-01
DAV:  77    -0.912294023442E+03    0.11918E-02   -0.21199E-03  4464   0.721E-02    0.602E-01
DAV:  78    -0.912301205447E+03   -0.71820E-02   -0.15010E-03  3984   0.558E-02    0.548E-01
DAV:  79    -0.912318323435E+03   -0.17118E-01   -0.22766E-03  3888   0.790E-02    0.414E-01
DAV:  80    -0.912325055301E+03   -0.67319E-02   -0.19369E-03  4128   0.627E-02    0.322E-01
DAV:  81    -0.912329840134E+03   -0.47848E-02   -0.84691E-04  4128   0.459E-02    0.223E-01
DAV:  82    -0.912332870452E+03   -0.30303E-02   -0.37746E-04  4416   0.316E-02    0.176E-01
DAV:  83    -0.912335579512E+03   -0.27091E-02   -0.33346E-04  4176   0.264E-02    0.126E-01
DAV:  84    -0.912337270915E+03   -0.16914E-02   -0.16112E-04  4320   0.195E-02    0.104E-01
DAV:  85    -0.912338542308E+03   -0.12714E-02   -0.11256E-04  4224   0.159E-02    0.112E-01
DAV:  86    -0.912339647729E+03   -0.11054E-02   -0.10273E-04  4224   0.141E-02    0.107E-01
DAV:  87    -0.912340231677E+03   -0.58395E-03   -0.72767E-05  4272   0.114E-02    0.120E-01
DAV:  88    -0.912340755356E+03   -0.52368E-03   -0.47134E-05  3936   0.863E-03    0.120E-01
DAV:  89    -0.912341486588E+03   -0.73123E-03   -0.47085E-05  4128   0.929E-03    0.130E-01
DAV:  90    -0.912341813302E+03   -0.32671E-03   -0.37497E-05  4032   0.889E-03
 -----------------------------------------------------------------------------
|                                                                             |
|           W    W    AA    RRRRR   N    N  II  N    N   GGGG   !!!           |
|           W    W   A  A   R    R  NN   N  II  NN   N  G    G  !!!           |
|           W    W  A    A  R    R  N N  N  II  N N  N  G       !!!           |
|           W WW W  AAAAAA  RRRRR   N  N N  II  N  N N  G  GGG   !            |
|           WW  WW  A    A  R   R   N   NN  II  N   NN  G    G                |
|           W    W  A    A  R    R  N    N  II  N    N   GGGG   !!!           |
|                                                                             |
|     The electronic self-consistency was not achieved in the given           |
|     number of steps (NELM). The forces and other quantities evaluated       |
|     might not be reliable so examine the results carefully. If you find     |
|     spurious results, we suggest increasing NELM, if you were close to      |
|     convergence or switching to a different ALGO or adjusting the           |
|     density mixing parameters otherwise.                                    |
|                                                                             |
 -----------------------------------------------------------------------------

   1 F= -.91234181E+03 E0= -.91232790E+03  d E =-.912342E+03  mag=    35.6127
 curvature:   0.00 expect dE= 0.000E+00 dE for cont linesearch  0.000E+00
 trial: gam= 0.00000 g(F)=  0.341E+02 g(S)=  0.000E+00 ort = 0.000E+00 (trialstep = 0.100E+01)
 search vector abs. value=  0.341E+02
 bond charge predicted
       N       E                     dE             d eps       ncg     rms          rms(c)
DAV:   1    -0.845359433240E+03    0.66982E+02   -0.65364E+03  3120   0.914E+01    0.854E+01
DAV:   2    -0.897910469744E+03   -0.52551E+02   -0.76381E+02  4176   0.402E+01    0.252E+02
DAV:   3    -0.939255384131E+03   -0.41345E+02   -0.15276E+02  4656   0.153E+01    0.474E+02
DAV:   4    -0.933903255288E+03    0.53521E+01   -0.32263E+01  3936   0.771E+00    0.397E+02
DAV:   5    -0.906482355065E+03    0.27421E+02   -0.49804E+01  4464   0.974E+00    0.185E+02
DAV:   6    -0.885948454185E+03    0.20534E+02   -0.46333E+01  4320   0.750E+00    0.126E+02
DAV:   7    -0.875683255134E+03    0.10265E+02   -0.18686E+01  4128   0.679E+00    0.951E+01
DAV:   8    -0.880614332212E+03   -0.49311E+01   -0.68072E+01  4512   0.799E+00    0.893E+01
DAV:   9    -0.886877489530E+03   -0.62632E+01   -0.16475E+02  4656   0.708E+00    0.793E+01
DAV:  10    -0.880537658067E+03    0.63398E+01   -0.51995E+01  4032   0.786E+00    0.772E+01
DAV:  11    -0.883072715704E+03   -0.25351E+01   -0.54523E+01  4224   0.593E+00    0.703E+01
DAV:  12    -0.881981457305E+03    0.10913E+01   -0.24657E+01  4320   0.539E+00    0.674E+01
DAV:  13    -0.882409553337E+03   -0.42810E+00   -0.28246E+01  4128   0.362E+00    0.606E+01
DAV:  14    -0.883206501237E+03   -0.79695E+00   -0.17926E+01  4320   0.288E+00    0.571E+01
DAV:  15    -0.883357843369E+03   -0.15134E+00   -0.10742E+01  4368   0.217E+00    0.539E+01
DAV:  16    -0.883598888305E+03   -0.24104E+00   -0.13759E+00  4032   0.112E+00    0.528E+01
DAV:  17    -0.884263617636E+03   -0.66473E+00   -0.18449E+00  4128   0.120E+00    0.509E+01
DAV:  18    -0.884450663031E+03   -0.18705E+00   -0.21269E+00  4272   0.123E+00    0.473E+01
DAV:  19    -0.885075180414E+03   -0.62452E+00   -0.25643E+00  3888   0.151E+00    0.436E+01
DAV:  20    -0.885106232915E+03   -0.31053E-01   -0.28058E+00  4368   0.110E+00    0.392E+01
DAV:  21    -0.885556962946E+03   -0.45073E+00   -0.13329E+00  4032   0.129E+00    0.337E+01
DAV:  22    -0.885539814934E+03    0.17148E-01   -0.40019E-01  3984   0.772E-01    0.315E+01
DAV:  23    -0.885549630395E+03   -0.98155E-02   -0.13183E-01  4176   0.495E-01    0.308E+01
DAV:  24    -0.885702682578E+03   -0.15305E+00   -0.45054E-01  3936   0.681E-01    0.264E+01
DAV:  25    -0.885762073927E+03   -0.59391E-01   -0.28162E-01  4128   0.663E-01    0.251E+01
DAV:  26    -0.885984199741E+03   -0.22213E+00   -0.34877E-01  3888   0.666E-01    0.236E+01
DAV:  27    -0.886038909011E+03   -0.54709E-01   -0.18636E-01  3984   0.553E-01    0.240E+01
DAV:  28    -0.886137955089E+03   -0.99046E-01   -0.83502E-02  4272   0.414E-01    0.230E+01
DAV:  29    -0.886416298257E+03   -0.27834E+00   -0.22674E-01  4032   0.710E-01    0.190E+01
DAV:  30    -0.886811304293E+03   -0.39501E+00   -0.33918E-01  4176   0.699E-01    0.150E+01
DAV:  31    -0.887020772944E+03   -0.20947E+00   -0.10640E-01  3888   0.475E-01    0.118E+01
DAV:  32    -0.887299875173E+03   -0.27910E+00   -0.21818E-01  3984   0.532E-01    0.103E+01
DAV:  33    -0.887368036900E+03   -0.68162E-01   -0.42135E-02  3984   0.268E-01    0.973E+00
DAV:  34    -0.887422197578E+03   -0.54161E-01   -0.16686E-02  4176   0.168E-01    0.953E+00
DAV:  35    -0.887454128918E+03   -0.31931E-01   -0.77235E-03  4080   0.113E-01    0.102E+01
DAV:  36    -0.887454266923E+03   -0.13800E-03   -0.48759E-03  4080   0.941E-02    0.981E+00
DAV:  37    -0.887513626075E+03   -0.59359E-01   -0.41225E-02  3888   0.253E-01    0.923E+00
DAV:  38    -0.887535264849E+03   -0.21639E-01   -0.72040E-02  4128   0.339E-01    0.782E+00
DAV:  39    -0.887587380455E+03   -0.52116E-01   -0.92963E-02  4224   0.362E-01    0.629E+00
DAV:  40    -0.887652063653E+03   -0.64683E-01   -0.12741E-01  4080   0.392E-01    0.608E+00
DAV:  41    -0.887658576267E+03   -0.65126E-02   -0.78141E-02  4032   0.318E-01    0.679E+00
DAV:  42    -0.887650739129E+03    0.78371E-02   -0.18337E-02  4224   0.159E-01    0.717E+00
DAV:  43    -0.887651177134E+03   -0.43801E-03   -0.11109E-03  3696   0.531E-02    0.716E+00
DAV:  44    -0.887649388095E+03    0.17890E-02   -0.67260E-04  4944   0.278E-02    0.717E+00
DAV:  45    -0.887649703690E+03   -0.31560E-03   -0.61266E-05  4128   0.117E-02    0.717E+00
DAV:  46    -0.887648981601E+03    0.72209E-03   -0.67606E-04  3936   0.326E-02    0.722E+00
DAV:  47    -0.887524697414E+03    0.12428E+00   -0.93087E-01  3888   0.105E+00    0.993E+00
DAV:  48    -0.887551767640E+03   -0.27070E-01   -0.11442E-01  3552   0.417E-01    0.909E+00
DAV:  49    -0.887637427449E+03   -0.85660E-01   -0.12854E-01  3936   0.365E-01    0.970E+00
DAV:  50    -0.887654689234E+03   -0.17262E-01   -0.13759E-01  4224   0.380E-01    0.899E+00
DAV:  51    -0.887669903845E+03   -0.15215E-01   -0.80071E-02  3984   0.395E-01    0.959E+00
DAV:  52    -0.887660867728E+03    0.90361E-02   -0.71902E-02  4416   0.468E-01    0.101E+01
DAV:  53    -0.887664043565E+03   -0.31758E-02   -0.13624E-01  4272   0.452E-01    0.103E+01
DAV:  54    -0.887683473239E+03   -0.19430E-01   -0.11938E-01  3888   0.361E-01    0.970E+00
DAV:  55    -0.887700808629E+03   -0.17335E-01   -0.66814E-02  4080   0.329E-01    0.924E+00
DAV:  56    -0.887750493805E+03   -0.49685E-01   -0.61549E-02  4032   0.303E-01    0.847E+00
DAV:  57    -0.887845151061E+03   -0.94657E-01   -0.16139E-01  3888   0.559E-01    0.662E+00
DAV:  58    -0.887855450440E+03   -0.10299E-01   -0.31743E-02  3984   0.248E-01    0.631E+00
DAV:  59    -0.887862788396E+03   -0.73380E-02   -0.13670E-02  4080   0.161E-01    0.577E+00
DAV:  60    -0.887873851003E+03   -0.11063E-01   -0.19182E-02  4032   0.184E-01    0.487E+00
DAV:  61    -0.887885305321E+03   -0.11454E-01   -0.27931E-02  3984   0.207E-01    0.379E+00
DAV:  62    -0.887898990159E+03   -0.13685E-01   -0.20973E-01  3840   0.436E-01    0.455E+00
DAV:  63    -0.887915306907E+03   -0.16317E-01   -0.36464E-02  4080   0.265E-01    0.538E+00
DAV:  64    -0.887913978882E+03    0.13280E-02   -0.76476E-03  4128   0.112E-01    0.639E+00
DAV:  65    -0.887909580497E+03    0.43984E-02   -0.88288E-04  3456   0.492E-02    0.627E+00
DAV:  66    -0.887909217313E+03    0.36318E-03   -0.15235E-04  4800   0.147E-02    0.635E+00
DAV:  67    -0.887911511800E+03   -0.22945E-02   -0.62340E-03  4176   0.812E-02    0.756E+00
DAV:  68    -0.887907478189E+03    0.40336E-02   -0.28186E-03  4272   0.659E-02    0.649E+00
DAV:  69    -0.887912613734E+03   -0.51355E-02   -0.55137E-03  3936   0.810E-02    0.635E+00
DAV:  70    -0.887914136327E+03   -0.15226E-02   -0.32943E-03  4080   0.644E-02    0.616E+00
DAV:  71    -0.887918410987E+03   -0.42747E-02   -0.69394E-03  3840   0.920E-02    0.623E+00
DAV:  72    -0.887919613848E+03   -0.12029E-02   -0.11245E-02  4032   0.126E-01    0.717E+00
DAV:  73    -0.887915597908E+03    0.40159E-02   -0.12295E-03  3600   0.539E-02    0.708E+00
DAV:  74    -0.887918373554E+03   -0.27756E-02   -0.82487E-04  3984   0.372E-02    0.736E+00
DAV:  75    -0.887920185275E+03   -0.18117E-02   -0.27230E-04  3984   0.240E-02    0.754E+00
DAV:  76    -0.887920597327E+03   -0.41205E-03   -0.96543E-05  4560   0.137E-02    0.763E+00
DAV:  77    -0.887928730917E+03   -0.81336E-02   -0.75917E-03  3888   0.980E-02    0.859E+00
DAV:  78    -0.887924355928E+03    0.43750E-02   -0.77517E-04  3504   0.422E-02    0.856E+00
DAV:  79    -0.887924506258E+03   -0.15033E-03   -0.48289E-03  3792   0.816E-02    0.884E+00
DAV:  80    -0.887923288711E+03    0.12175E-02   -0.18983E-03  4224   0.608E-02    0.878E+00
DAV:  81    -0.887922709838E+03    0.57887E-03   -0.40489E-04  3984   0.286E-02    0.868E+00
DAV:  82    -0.887913562523E+03    0.91473E-02   -0.70414E-03  3984   0.114E-01    0.840E+00
DAV:  83    -0.887927939832E+03   -0.14377E-01   -0.19286E-02  3984   0.134E-01    0.871E+00
DAV:  84    -0.887918066179E+03    0.98737E-02   -0.13757E-02  3888   0.163E-01    0.766E+00
DAV:  85    -0.887920432078E+03   -0.23659E-02   -0.83984E-03  4128   0.122E-01    0.722E+00
DAV:  86    -0.887924178549E+03   -0.37465E-02   -0.13195E-03  3792   0.520E-02    0.722E+00
DAV:  87    -0.887902170514E+03    0.22008E-01   -0.11102E-01  3840   0.351E-01    0.558E+00
DAV:  88    -0.887910262506E+03   -0.80920E-02   -0.17347E-02  3840   0.184E-01    0.623E+00
DAV:  89    -0.887899616379E+03    0.10646E-01   -0.74661E-02  3840   0.307E-01    0.500E+00
DAV:  90    -0.887897587048E+03    0.20293E-02   -0.28147E-02  4032   0.213E-01
 -----------------------------------------------------------------------------
|                                                                             |
|           W    W    AA    RRRRR   N    N  II  N    N   GGGG   !!!           |
|           W    W   A  A   R    R  NN   N  II  NN   N  G    G  !!!           |
|           W    W  A    A  R    R  N N  N  II  N N  N  G       !!!           |
|           W WW W  AAAAAA  RRRRR   N  N N  II  N  N N  G  GGG   !            |
|           WW  WW  A    A  R   R   N   NN  II  N   NN  G    G                |
|           W    W  A    A  R    R  N    N  II  N    N   GGGG   !!!           |
|                                                                             |
|     The electronic self-consistency was not achieved in the given           |
|     number of steps (NELM). The forces and other quantities evaluated       |
|     might not be reliable so examine the results carefully. If you find     |
|     spurious results, we suggest increasing NELM, if you were close to      |
|     convergence or switching to a different ALGO or adjusting the           |
|     density mixing parameters otherwise.                                    |
|                                                                             |
 -----------------------------------------------------------------------------

   2 F= -.88789759E+03 E0= -.88788426E+03  d E =0.244442E+02  mag=    28.9571
 trial-energy change:   24.444226  1 .order   50.280575  -34.108784  134.669933
 step:   0.2021(harm=  0.2021)  dis= 0.12370  next Energy=  -915.788365 (dE=-0.345E+01)
 bond charge predicted
       N       E                     dE             d eps       ncg     rms          rms(c)
DAV:   1    -0.894652963327E+03   -0.67533E+01   -0.42842E+03  2784   0.721E+01    0.105E+02
DAV:   2    -0.936808632121E+03   -0.42156E+02   -0.44835E+02  4128   0.284E+01    0.963E+01
DAV:   3    -0.944240070362E+03   -0.74314E+01   -0.55994E+02  4320   0.219E+01    0.989E+01
DAV:   4    -0.946566334665E+03   -0.23263E+01   -0.44087E+02  4320   0.160E+01    0.719E+01
DAV:   5    -0.935735132838E+03    0.10831E+02   -0.52502E+02  4704   0.154E+01    0.682E+01
DAV:   6    -0.937623491045E+03   -0.18884E+01   -0.16931E+02  3888   0.138E+01    0.727E+01
DAV:   7    -0.921215467568E+03    0.16408E+02   -0.20818E+02  4128   0.107E+01    0.531E+01
DAV:   8    -0.918325106283E+03    0.28904E+01   -0.29756E+01  4032   0.708E+00    0.461E+01
DAV:   9    -0.918228367112E+03    0.96739E-01   -0.86577E+00  3936   0.348E+00    0.407E+01
DAV:  10    -0.918092416145E+03    0.13595E+00   -0.10824E+01  4128   0.322E+00    0.392E+01
DAV:  11    -0.917971197807E+03    0.12122E+00   -0.12382E+00  4224   0.172E+00    0.359E+01
DAV:  12    -0.917588276820E+03    0.38292E+00   -0.12885E+00  4368   0.223E+00    0.308E+01
DAV:  13    -0.917636556722E+03   -0.48280E-01   -0.39803E+00  4176   0.256E+00    0.289E+01
DAV:  14    -0.918142531383E+03   -0.50597E+00   -0.10274E+01  4032   0.275E+00    0.313E+01
DAV:  15    -0.917279207634E+03    0.86332E+00   -0.13608E+01  4080   0.248E+00    0.240E+01
DAV:  16    -0.916462292805E+03    0.81691E+00   -0.41055E+00  4128   0.180E+00    0.211E+01
DAV:  17    -0.916003284247E+03    0.45901E+00   -0.37479E+00  3936   0.166E+00    0.210E+01
DAV:  18    -0.915631382174E+03    0.37190E+00   -0.90709E+00  4512   0.158E+00    0.216E+01
DAV:  19    -0.915612785160E+03    0.18597E-01   -0.37705E-01  3600   0.642E-01    0.205E+01
DAV:  20    -0.916099297254E+03   -0.48651E+00   -0.25500E+00  5088   0.679E-01    0.230E+01
DAV:  21    -0.915906938792E+03    0.19236E+00   -0.23165E-01  3936   0.457E-01    0.220E+01
DAV:  22    -0.916087606636E+03   -0.18067E+00   -0.68247E-01  4080   0.963E-01    0.197E+01
DAV:  23    -0.916152970944E+03   -0.65364E-01   -0.20959E+00  3984   0.106E+00    0.147E+01
DAV:  24    -0.916291702531E+03   -0.13873E+00   -0.24209E-01  3840   0.716E-01    0.152E+01
DAV:  25    -0.916287845831E+03    0.38567E-02   -0.36686E-02  3744   0.267E-01    0.152E+01
DAV:  26    -0.916353688745E+03   -0.65843E-01   -0.20205E-01  4224   0.315E-01    0.154E+01
DAV:  27    -0.916353111793E+03    0.57695E-03   -0.12359E-01  4128   0.433E-01    0.155E+01
DAV:  28    -0.916359965897E+03   -0.68541E-02   -0.12737E-01  3840   0.347E-01    0.151E+01
DAV:  29    -0.916443283764E+03   -0.83318E-01   -0.27720E-01  3744   0.458E-01    0.149E+01
DAV:  30    -0.916484414391E+03   -0.41131E-01   -0.22129E-01  4032   0.476E-01    0.153E+01
DAV:  31    -0.916482735222E+03    0.16792E-02   -0.98387E-02  3552   0.326E-01    0.152E+01
DAV:  32    -0.916540077779E+03   -0.57343E-01   -0.14701E-01  3840   0.332E-01    0.149E+01
DAV:  33    -0.916618672437E+03   -0.78595E-01   -0.26387E-01  4032   0.457E-01    0.144E+01
DAV:  34    -0.916663837042E+03   -0.45165E-01   -0.18777E-01  3840   0.408E-01    0.140E+01
DAV:  35    -0.916674716403E+03   -0.10879E-01   -0.51733E-02  3696   0.245E-01    0.138E+01
DAV:  36    -0.916634557280E+03    0.40159E-01   -0.13942E-01  3984   0.332E-01    0.137E+01
DAV:  37    -0.916617508051E+03    0.17049E-01   -0.13268E-01  3840   0.325E-01    0.137E+01
DAV:  38    -0.916607617288E+03    0.98908E-02   -0.18356E-02  3648   0.180E-01    0.136E+01
DAV:  39    -0.916589549988E+03    0.18067E-01   -0.22121E-01  3792   0.509E-01    0.138E+01
DAV:  40    -0.916571213033E+03    0.18337E-01   -0.24205E-01  3744   0.499E-01    0.141E+01
DAV:  41    -0.916541240310E+03    0.29973E-01   -0.16960E-01  4080   0.378E-01    0.136E+01
DAV:  42    -0.916506465471E+03    0.34775E-01   -0.20613E-01  3840   0.391E-01    0.133E+01
DAV:  43    -0.916496609786E+03    0.98557E-02   -0.19397E-01  4032   0.447E-01    0.126E+01
DAV:  44    -0.916458438481E+03    0.38171E-01   -0.27034E-02  3456   0.222E-01    0.124E+01
DAV:  45    -0.916368183964E+03    0.90255E-01   -0.91336E-02  4176   0.405E-01    0.121E+01
DAV:  46    -0.916191749015E+03    0.17643E+00   -0.22674E-01  3984   0.674E-01    0.115E+01
DAV:  47    -0.912862865260E+03    0.33289E+01   -0.13058E+01  3600   0.424E+00    0.183E+01
DAV:  48    -0.913052446742E+03   -0.18958E+00   -0.25101E+00  4080   0.143E+00    0.177E+01
DAV:  49    -0.913014769328E+03    0.37677E-01   -0.84586E-02  4272   0.328E-01    0.177E+01
DAV:  50    -0.913097024434E+03   -0.82255E-01   -0.95317E-03  4800   0.969E-02    0.177E+01
DAV:  51    -0.913118626586E+03   -0.21602E-01   -0.48130E-03  3600   0.698E-02    0.177E+01
DAV:  52    -0.906572265410E+03    0.65464E+01   -0.77186E+00  3504   0.234E+00    0.226E+01
DAV:  53    -0.907561819208E+03   -0.98955E+00   -0.80555E-01  3936   0.988E-01    0.215E+01
DAV:  54    -0.907557679426E+03    0.41398E-02   -0.54281E-02  3696   0.273E-01    0.215E+01
DAV:  55    -0.907552655126E+03    0.50243E-02   -0.32341E-03  4848   0.703E-02    0.215E+01
DAV:  56    -0.907199484113E+03    0.35317E+00   -0.88376E-02  3552   0.250E-01    0.217E+01
DAV:  57    -0.906494274698E+03    0.70521E+00   -0.49523E-01  3840   0.854E-01    0.237E+01
DAV:  58    -0.906653120895E+03   -0.15885E+00   -0.10490E-01  3456   0.314E-01    0.238E+01
DAV:  59    -0.906521089482E+03    0.13203E+00   -0.32561E-01  3696   0.278E-01    0.237E+01
DAV:  60    -0.906411450748E+03    0.10964E+00   -0.21950E-01  3600   0.325E-01    0.235E+01
DAV:  61    -0.906308597583E+03    0.10285E+00   -0.24175E-02  3600   0.144E-01    0.236E+01
DAV:  62    -0.906563976471E+03   -0.25538E+00   -0.16332E+00  3888   0.141E+00    0.260E+01
DAV:  63    -0.905662919646E+03    0.90106E+00   -0.57594E-01  3888   0.760E-01    0.232E+01
DAV:  64    -0.905407568934E+03    0.25535E+00   -0.88487E-01  3888   0.118E+00    0.240E+01
DAV:  65    -0.905589865787E+03   -0.18230E+00   -0.30228E-01  3840   0.722E-01    0.245E+01
DAV:  66    -0.905579615315E+03    0.10250E-01   -0.32436E-02  3888   0.256E-01    0.245E+01
DAV:  67    -0.901615280478E+03    0.39643E+01   -0.35518E+00  3792   0.218E+00    0.293E+01
DAV:  68    -0.903197602313E+03   -0.15823E+01   -0.16701E+00  3696   0.116E+00    0.225E+01
DAV:  69    -0.905201122876E+03   -0.20035E+01   -0.17594E+00  3792   0.115E+00    0.211E+01
DAV:  70    -0.905858883321E+03   -0.65776E+00   -0.63413E-01  3984   0.106E+00    0.187E+01
DAV:  71    -0.905747208389E+03    0.11167E+00   -0.60587E-01  3648   0.828E-01    0.158E+01
DAV:  72    -0.909898857085E+03   -0.41516E+01   -0.51869E+00  3696   0.203E+00    0.139E+01
DAV:  73    -0.909593002632E+03    0.30585E+00   -0.11262E+00  4032   0.131E+00    0.131E+01
DAV:  74    -0.912719269581E+03   -0.31263E+01   -0.20303E+00  3696   0.108E+00    0.112E+01
DAV:  75    -0.912753983287E+03   -0.34714E-01   -0.47819E-01  4224   0.725E-01    0.131E+01
DAV:  76    -0.913854322740E+03   -0.11003E+01   -0.39732E-01  3552   0.606E-01    0.130E+01
DAV:  77    -0.917061372822E+03   -0.32071E+01   -0.76768E+00  3744   0.276E+00    0.142E+01
DAV:  78    -0.916932912918E+03    0.12846E+00   -0.88417E-01  4176   0.154E+00    0.123E+01
DAV:  79    -0.916857396424E+03    0.75516E-01   -0.25786E-01  3840   0.780E-01    0.121E+01
DAV:  80    -0.916820517128E+03    0.36879E-01   -0.15009E-01  4176   0.604E-01    0.110E+01
DAV:  81    -0.916890531061E+03   -0.70014E-01   -0.24180E-01  3840   0.540E-01    0.114E+01
DAV:  82    -0.916925767539E+03   -0.35236E-01   -0.56513E-01  3792   0.104E+00    0.115E+01
DAV:  83    -0.916868999271E+03    0.56768E-01   -0.82509E-01  4176   0.763E-01    0.121E+01
DAV:  84    -0.916874858657E+03   -0.58594E-02   -0.98805E-02  3936   0.443E-01    0.120E+01
DAV:  85    -0.916844181266E+03    0.30677E-01   -0.32602E-02  3888   0.265E-01    0.122E+01
DAV:  86    -0.916826040547E+03    0.18141E-01   -0.80997E-03  3936   0.129E-01    0.122E+01
DAV:  87    -0.916867253063E+03   -0.41213E-01   -0.30896E-01  3792   0.767E-01    0.125E+01
DAV:  88    -0.916818855154E+03    0.48398E-01   -0.17764E-01  4512   0.566E-01    0.128E+01
DAV:  89    -0.916803129939E+03    0.15725E-01   -0.13718E-01  3792   0.457E-01    0.127E+01
DAV:  90    -0.916788104071E+03    0.15026E-01   -0.66205E-02  3792   0.346E-01
 -----------------------------------------------------------------------------
|                                                                             |
|           W    W    AA    RRRRR   N    N  II  N    N   GGGG   !!!           |
|           W    W   A  A   R    R  NN   N  II  NN   N  G    G  !!!           |
|           W    W  A    A  R    R  N N  N  II  N N  N  G       !!!           |
|           W WW W  AAAAAA  RRRRR   N  N N  II  N  N N  G  GGG   !            |
|           WW  WW  A    A  R   R   N   NN  II  N   NN  G    G                |
|           W    W  A    A  R    R  N    N  II  N    N   GGGG   !!!           |
|                                                                             |
|     The electronic self-consistency was not achieved in the given           |
|     number of steps (NELM). The forces and other quantities evaluated       |
|     might not be reliable so examine the results carefully. If you find     |
|     spurious results, we suggest increasing NELM, if you were close to      |
|     convergence or switching to a different ALGO or adjusting the           |
|     density mixing parameters otherwise.                                    |
|                                                                             |
 -----------------------------------------------------------------------------

   3 F= -.91678810E+03 E0= -.91678656E+03  d E =-.444629E+01  mag=    33.1080
 curvature:  -0.10 expect dE=-0.112E+01 dE for cont linesearch -0.829E+00
 ZBRENT: interpolating
 opt :   0.2902  next Energy=  -917.525094 (dE=-0.518E+01)
 bond charge predicted
       N       E                     dE             d eps       ncg     rms          rms(c)
DAV:   1    -0.917866916325E+03   -0.10638E+01   -0.55633E+01  2688   0.747E+00    0.140E+01
DAV:   2    -0.922583854975E+03   -0.47169E+01   -0.33078E+01  4368   0.649E+00    0.452E+01
DAV:   3    -0.917558894037E+03    0.50250E+01   -0.26044E+01  4080   0.360E+00    0.100E+01
DAV:   4    -0.917900738750E+03   -0.34184E+00   -0.62174E+00  4128   0.299E+00    0.118E+01
DAV:   5    -0.917898621773E+03    0.21170E-02   -0.16219E+00  4080   0.173E+00    0.741E+00
DAV:   6    -0.918012603209E+03   -0.11398E+00   -0.21240E-01  4032   0.593E-01    0.681E+00
DAV:   7    -0.918144309118E+03   -0.13171E+00   -0.20756E-01  4176   0.730E-01    0.574E+00
DAV:   8    -0.918101964746E+03    0.42344E-01   -0.55312E-01  4032   0.104E+00    0.466E+00
DAV:   9    -0.917947140523E+03    0.15482E+00   -0.30792E-01  3984   0.869E-01    0.229E+00
DAV:  10    -0.917972685163E+03   -0.25545E-01   -0.29889E-01  3984   0.729E-01    0.294E+00
DAV:  11    -0.917993507664E+03   -0.20823E-01   -0.15562E-01  4320   0.469E-01    0.124E+00
DAV:  12    -0.918075655371E+03   -0.82148E-01   -0.58982E-02  3792   0.299E-01    0.105E+00
DAV:  13    -0.918124051356E+03   -0.48396E-01   -0.27010E-02  4224   0.211E-01    0.100E+00
DAV:  14    -0.918181915237E+03   -0.57864E-01   -0.15144E-02  3984   0.162E-01    0.739E-01
DAV:  15    -0.918251107521E+03   -0.69192E-01   -0.22320E-02  3984   0.182E-01    0.838E-01
DAV:  16    -0.918303783808E+03   -0.52676E-01   -0.16063E-02  3936   0.141E-01    0.517E-01
DAV:  17    -0.918327140216E+03   -0.23356E-01   -0.78317E-03  4224   0.115E-01    0.498E-01
DAV:  18    -0.918342592379E+03   -0.15452E-01   -0.30195E-03  3888   0.746E-02    0.401E-01
DAV:  19    -0.918352557970E+03   -0.99656E-02   -0.19712E-03  3936   0.584E-02    0.479E-01
DAV:  20    -0.918359949482E+03   -0.73915E-02   -0.11026E-03  3936   0.451E-02    0.487E-01
DAV:  21    -0.918373520725E+03   -0.13571E-01   -0.16634E-03  3792   0.476E-02    0.450E-01
DAV:  22    -0.918384519606E+03   -0.10999E-01   -0.11640E-03  3888   0.417E-02    0.427E-01
DAV:  23    -0.918399077086E+03   -0.14557E-01   -0.22965E-03  3744   0.513E-02    0.428E-01
DAV:  24    -0.918405242032E+03   -0.61649E-02   -0.10717E-03  3888   0.371E-02    0.389E-01
DAV:  25    -0.918409972786E+03   -0.47308E-02   -0.69318E-04  3792   0.302E-02    0.357E-01
DAV:  26    -0.918411138507E+03   -0.11657E-02   -0.45001E-04  3840   0.233E-02    0.329E-01
DAV:  27    -0.918411537604E+03   -0.39910E-03   -0.18023E-04  3936   0.154E-02    0.308E-01
DAV:  28    -0.918411962419E+03   -0.42481E-03   -0.20620E-04  3840   0.146E-02    0.289E-01
DAV:  29    -0.918413786225E+03   -0.18238E-02   -0.13170E-03  3696   0.308E-02    0.255E-01
DAV:  30    -0.918414998097E+03   -0.12119E-02   -0.11118E-03  3792   0.290E-02    0.226E-01
DAV:  31    -0.918415703361E+03   -0.70526E-03   -0.36362E-04  4080   0.167E-02    0.218E-01
DAV:  32    -0.918416084968E+03   -0.38161E-03   -0.17457E-04  3744   0.105E-02    0.215E-01
DAV:  33    -0.918416552062E+03   -0.46709E-03   -0.35553E-04  3744   0.145E-02    0.213E-01
DAV:  34    -0.918417047119E+03   -0.49506E-03   -0.31878E-03  3792   0.403E-02    0.202E-01
DAV:  35    -0.918417247201E+03   -0.20008E-03   -0.14231E-03  4128   0.317E-02    0.193E-01
DAV:  36    -0.918417275178E+03   -0.27977E-04   -0.18119E-03  3792   0.293E-02    0.190E-01
DAV:  37    -0.918417340884E+03   -0.65705E-04   -0.10034E-04  3312   0.128E-02    0.188E-01
DAV:  38    -0.918417373312E+03   -0.32428E-04   -0.22430E-05  4176   0.529E-03    0.191E-01
DAV:  39    -0.918417374166E+03   -0.85466E-06   -0.10203E-04  3600   0.869E-03    0.187E-01
DAV:  40    -0.918417486541E+03   -0.11237E-03   -0.33194E-03  3648   0.433E-02    0.178E-01
DAV:  41    -0.918417588027E+03   -0.10149E-03   -0.14101E-02  3600   0.893E-02    0.191E-01
DAV:  42    -0.918418195690E+03   -0.60766E-03   -0.42575E-03  4080   0.568E-02    0.192E-01
DAV:  43    -0.918418377396E+03   -0.18171E-03   -0.67021E-04  4272   0.230E-02    0.190E-01
DAV:  44    -0.918418592573E+03   -0.21518E-03   -0.15291E-04  3984   0.162E-02    0.166E-01
DAV:  45    -0.918417901981E+03    0.69059E-03   -0.81452E-03  3696   0.734E-02    0.182E-01
DAV:  46    -0.918418730329E+03   -0.82835E-03   -0.32116E-03  4128   0.577E-02    0.103E-01
DAV:  47    -0.918418637350E+03    0.92979E-04   -0.14352E-03  3984   0.335E-02    0.946E-02
DAV:  48    -0.918418912009E+03   -0.27466E-03   -0.30233E-04  3792   0.180E-02    0.567E-02
DAV:  49    -0.918419099883E+03   -0.18787E-03   -0.34342E-05  3168   0.707E-03    0.488E-02
DAV:  50    -0.918419164396E+03   -0.64513E-04   -0.14112E-05  4320   0.419E-03    0.404E-02
DAV:  51    -0.918419301339E+03   -0.13694E-03   -0.11904E-04  3600   0.101E-02    0.286E-02
DAV:  52    -0.918419407549E+03   -0.10621E-03   -0.16495E-05  3648   0.517E-03    0.231E-02
DAV:  53    -0.918419509283E+03   -0.10173E-03   -0.33010E-04  3696   0.162E-02    0.195E-02
DAV:  54    -0.918419583299E+03   -0.74016E-04   -0.38332E-05  3600   0.731E-03    0.138E-02
DAV:  55    -0.918419627292E+03   -0.43993E-04   -0.86208E-06  3696   0.310E-03    0.940E-03
DAV:  56    -0.918419671065E+03   -0.43773E-04   -0.22261E-06  3024   0.179E-03    0.788E-03
DAV:  57    -0.918419717775E+03   -0.46710E-04   -0.15097E-06  2208   0.145E-03    0.815E-03
DAV:  58    -0.918419750066E+03   -0.32291E-04   -0.83461E-07  1824   0.133E-03    0.567E-03
DAV:  59    -0.918419766855E+03   -0.16790E-04   -0.18520E-06  2256   0.155E-03    0.294E-03
DAV:  60    -0.918419777536E+03   -0.10681E-04   -0.34370E-07  1632   0.100E-03    0.263E-03
DAV:  61    -0.918419786491E+03   -0.89548E-05   -0.31912E-07  1632   0.861E-04    0.231E-03
DAV:  62    -0.918419793471E+03   -0.69801E-05   -0.11600E-06  2160   0.124E-03    0.126E-03
DAV:  63    -0.918419798422E+03   -0.49509E-05   -0.28683E-07  1632   0.934E-04    0.968E-04
DAV:  64    -0.918419801207E+03   -0.27853E-05   -0.19683E-07  1632   0.719E-04    0.107E-03
DAV:  65    -0.918419803342E+03   -0.21350E-05   -0.33668E-07  1632   0.750E-04    0.840E-04
DAV:  66    -0.918419804698E+03   -0.13563E-05   -0.18264E-07  1632   0.724E-04    0.817E-04
DAV:  67    -0.918419805060E+03   -0.36179E-06   -0.98152E-08  1632   0.564E-04
   4 F= -.91841981E+03 E0= -.91841510E+03  d E =-.607799E+01  mag=    32.0001
 curvature:  -0.09 expect dE=-0.625E+00 dE for cont linesearch -0.244E+00
 ZBRENT: interpolating
 opt :   0.4017  next Energy=  -918.992182 (dE=-0.665E+01)
 bond charge predicted
       N       E                     dE             d eps       ncg     rms          rms(c)
DAV:   1    -0.918813211790E+03   -0.39341E+00   -0.89381E+01  2688   0.960E+00    0.733E+00
DAV:   2    -0.919207968103E+03   -0.39476E+00   -0.49863E+00  4368   0.357E+00    0.861E+00
DAV:   3    -0.918944958029E+03    0.26301E+00   -0.11380E+00  4416   0.158E+00    0.462E+00
DAV:   4    -0.918990799518E+03   -0.45841E-01   -0.10685E+00  4080   0.127E+00    0.455E+00
DAV:   5    -0.918931693633E+03    0.59106E-01   -0.86733E-01  4512   0.118E+00    0.323E+00
DAV:   6    -0.918889291285E+03    0.42402E-01   -0.40469E-01  4368   0.815E-01    0.166E+00
DAV:   7    -0.918886993455E+03    0.22978E-02   -0.12316E-01  4464   0.488E-01    0.103E+00
DAV:   8    -0.918892702318E+03   -0.57089E-02   -0.45468E-02  4320   0.287E-01    0.795E-01
DAV:   9    -0.918897621400E+03   -0.49191E-02   -0.20131E-02  4608   0.187E-01    0.388E-01
DAV:  10    -0.918905405434E+03   -0.77840E-02   -0.70442E-03  3840   0.129E-01    0.308E-01
DAV:  11    -0.918909757195E+03   -0.43518E-02   -0.35335E-03  4608   0.878E-02    0.211E-01
DAV:  12    -0.918913522029E+03   -0.37648E-02   -0.13427E-03  4128   0.510E-02    0.159E-01
DAV:  13    -0.918917083409E+03   -0.35614E-02   -0.64405E-04  4128   0.368E-02    0.140E-01
DAV:  14    -0.918919910120E+03   -0.28267E-02   -0.40105E-04  4224   0.272E-02    0.963E-02
DAV:  15    -0.918922677833E+03   -0.27677E-02   -0.24176E-04  3792   0.208E-02    0.587E-02
DAV:  16    -0.918926119843E+03   -0.34420E-02   -0.20254E-04  3792   0.194E-02    0.556E-02
DAV:  17    -0.918928024906E+03   -0.19051E-02   -0.10524E-04  4176   0.144E-02    0.347E-02
DAV:  18    -0.918929686681E+03   -0.16618E-02   -0.64416E-05  3984   0.108E-02    0.251E-02
DAV:  19    -0.918930744241E+03   -0.10576E-02   -0.35899E-05  3984   0.769E-03    0.182E-02
DAV:  20    -0.918931513460E+03   -0.76922E-03   -0.18174E-05  3888   0.536E-03    0.140E-02
DAV:  21    -0.918932217069E+03   -0.70361E-03   -0.15354E-05  3744   0.489E-03    0.111E-02
DAV:  22    -0.918932691594E+03   -0.47452E-03   -0.10114E-05  3600   0.361E-03    0.746E-03
DAV:  23    -0.918932943251E+03   -0.25166E-03   -0.42594E-06  3216   0.261E-03    0.568E-03
DAV:  24    -0.918933135135E+03   -0.19188E-03   -0.29831E-06  2928   0.204E-03    0.524E-03
DAV:  25    -0.918933229480E+03   -0.94345E-04   -0.11477E-06  2352   0.149E-03    0.376E-03
DAV:  26    -0.918933315599E+03   -0.86118E-04   -0.13593E-06  2256   0.143E-03    0.329E-03
DAV:  27    -0.918933373001E+03   -0.57403E-04   -0.10655E-06  2256   0.138E-03    0.271E-03
DAV:  28    -0.918933433394E+03   -0.60393E-04   -0.17242E-06  2544   0.137E-03    0.219E-03
DAV:  29    -0.918933470527E+03   -0.37133E-04   -0.12588E-06  2400   0.123E-03    0.169E-03
DAV:  30    -0.918933476443E+03   -0.59158E-05   -0.69713E-07  1968   0.102E-03    0.134E-03
DAV:  31    -0.918933473227E+03    0.32156E-05   -0.37340E-07  1920   0.999E-04    0.116E-03
DAV:  32    -0.918933473628E+03   -0.40028E-06   -0.22019E-07  1680   0.831E-04
   5 F= -.91893347E+03 E0= -.91893347E+03  d E =-.659166E+01  mag=    32.0000
 curvature:  -0.21 expect dE=-0.206E+01 dE for cont linesearch -0.648E-02
 trial: gam= 0.31591 g(F)=  0.975E+01 g(S)=  0.000E+00 ort =-0.102E+01 (trialstep = 0.880E+00)
 search vector abs. value=  0.125E+02
 bond charge predicted
       N       E                     dE             d eps       ncg     rms          rms(c)
DAV:   1    -0.911992196611E+03    0.69413E+01   -0.22654E+03  2784   0.556E+01    0.260E+01
DAV:   2    -0.923293328508E+03   -0.11301E+02   -0.12430E+02  3792   0.160E+01    0.640E+01
DAV:   3    -0.920409038882E+03    0.28843E+01   -0.26345E+01  4272   0.526E+00    0.381E+01
DAV:   4    -0.920477399093E+03   -0.68360E-01   -0.64467E+00  4512   0.260E+00    0.396E+01
DAV:   5    -0.921168558999E+03   -0.69116E+00   -0.40686E+01  4128   0.260E+00    0.439E+01
DAV:   6    -0.920406091811E+03    0.76247E+00   -0.27345E+01  4176   0.265E+00    0.471E+01
DAV:   7    -0.920707031621E+03   -0.30094E+00   -0.54436E+01  4368   0.333E+00    0.401E+01
DAV:   8    -0.920276173245E+03    0.43086E+00   -0.64603E+00  3792   0.216E+00    0.341E+01
DAV:   9    -0.919260032622E+03    0.10161E+01   -0.21180E+00  4176   0.146E+00    0.292E+01
DAV:  10    -0.918905990397E+03    0.35404E+00   -0.59384E-01  4032   0.100E+00    0.261E+01
DAV:  11    -0.918787991574E+03    0.11800E+00   -0.51035E+00  3984   0.138E+00    0.182E+01
DAV:  12    -0.918742300393E+03    0.45691E-01   -0.49720E-01  4032   0.783E-01    0.186E+01
DAV:  13    -0.918802479404E+03   -0.60179E-01   -0.96065E-02  3792   0.361E-01    0.180E+01
DAV:  14    -0.918790653659E+03    0.11826E-01   -0.81572E-02  3936   0.305E-01    0.176E+01
DAV:  15    -0.918780021293E+03    0.10632E-01   -0.61820E-02  4416   0.240E-01    0.170E+01
DAV:  16    -0.918733938303E+03    0.46083E-01   -0.15308E-01  4176   0.258E-01    0.176E+01
DAV:  17    -0.918742965777E+03   -0.90275E-02   -0.90452E-03  3648   0.113E-01    0.175E+01
DAV:  18    -0.918575631978E+03    0.16733E+00   -0.60749E-01  3888   0.685E-01    0.202E+01
DAV:  19    -0.918430878375E+03    0.14475E+00   -0.30880E-01  4080   0.608E-01    0.214E+01
DAV:  20    -0.918413935233E+03    0.16943E-01   -0.40310E-02  3792   0.246E-01    0.208E+01
DAV:  21    -0.918424024431E+03   -0.10089E-01   -0.48794E-02  4368   0.205E-01    0.205E+01
DAV:  22    -0.918427324570E+03   -0.33001E-02   -0.15665E-02  3984   0.151E-01    0.205E+01
DAV:  23    -0.918431047033E+03   -0.37225E-02   -0.10336E-02  4128   0.134E-01    0.201E+01
DAV:  24    -0.918443062020E+03   -0.12015E-01   -0.51912E-02  3888   0.303E-01    0.183E+01
DAV:  25    -0.918447781512E+03   -0.47195E-02   -0.72432E-02  3744   0.363E-01    0.167E+01
DAV:  26    -0.918421839639E+03    0.25942E-01   -0.87242E-02  3936   0.249E-01    0.174E+01
DAV:  27    -0.918401841885E+03    0.19998E-01   -0.12662E-02  3936   0.133E-01    0.174E+01
DAV:  28    -0.918400033068E+03    0.18088E-02   -0.18098E-03  3648   0.519E-02    0.176E+01
DAV:  29    -0.918407743231E+03   -0.77102E-02   -0.20125E-02  3984   0.136E-01    0.173E+01
DAV:  30    -0.918428006642E+03   -0.20263E-01   -0.13558E-01  3936   0.267E-01    0.188E+01
DAV:  31    -0.918443655697E+03   -0.15649E-01   -0.30242E-02  3744   0.164E-01    0.196E+01
DAV:  32    -0.918447780237E+03   -0.41245E-02   -0.31050E-03  3264   0.970E-02    0.195E+01
DAV:  33    -0.918451959557E+03   -0.41793E-02   -0.48519E-04  4176   0.329E-02    0.198E+01
DAV:  34    -0.918457133141E+03   -0.51736E-02   -0.22912E-02  3696   0.955E-02    0.209E+01
DAV:  35    -0.918456294142E+03    0.83900E-03   -0.33747E-03  3792   0.532E-02    0.212E+01
DAV:  36    -0.918425865144E+03    0.30429E-01   -0.34699E-02  3840   0.111E-01    0.216E+01
DAV:  37    -0.918437866425E+03   -0.12001E-01   -0.26061E-03  3360   0.710E-02    0.216E+01
DAV:  38    -0.918502555825E+03   -0.64689E-01   -0.12216E-01  3600   0.265E-01    0.221E+01
DAV:  39    -0.918528249357E+03   -0.25694E-01   -0.48007E-02  3696   0.240E-01    0.228E+01
DAV:  40    -0.918516344631E+03    0.11905E-01   -0.49297E-02  3744   0.196E-01    0.214E+01
DAV:  41    -0.918524881497E+03   -0.85369E-02   -0.47176E-02  3792   0.225E-01    0.213E+01
DAV:  42    -0.918482360487E+03    0.42521E-01   -0.80200E-02  3744   0.307E-01    0.193E+01
DAV:  43    -0.918428557325E+03    0.53803E-01   -0.14572E-01  3792   0.445E-01    0.171E+01
DAV:  44    -0.918445829740E+03   -0.17272E-01   -0.38486E-02  3840   0.192E-01    0.182E+01
DAV:  45    -0.918435571115E+03    0.10259E-01   -0.29428E-02  3792   0.224E-01    0.211E+01
DAV:  46    -0.918435979975E+03   -0.40886E-03   -0.84944E-03  3600   0.115E-01    0.213E+01
DAV:  47    -0.919051294839E+03   -0.61531E+00   -0.40499E+00  3840   0.146E+00    0.319E+01
DAV:  48    -0.919097920487E+03   -0.46626E-01   -0.57885E-01  3504   0.610E-01    0.313E+01
DAV:  49    -0.919043034196E+03    0.54886E-01   -0.42718E-02  4128   0.222E-01    0.317E+01
DAV:  50    -0.919054544594E+03   -0.11510E-01   -0.43702E-03  4272   0.681E-02    0.315E+01
DAV:  51    -0.919053154279E+03    0.13903E-02   -0.11468E-02  3936   0.593E-02    0.313E+01
DAV:  52    -0.918948383287E+03    0.10477E+00   -0.66084E-01  4032   0.638E-01    0.271E+01
DAV:  53    -0.918889198087E+03    0.59185E-01   -0.19822E-01  3600   0.407E-01    0.277E+01
DAV:  54    -0.918856952080E+03    0.32246E-01   -0.74676E-02  3792   0.276E-01    0.277E+01
DAV:  55    -0.918798381979E+03    0.58570E-01   -0.15746E-01  3888   0.243E-01    0.272E+01
DAV:  56    -0.918738488760E+03    0.59893E-01   -0.31789E-01  3744   0.275E-01    0.226E+01
DAV:  57    -0.918804873306E+03   -0.66385E-01   -0.31030E+00  3888   0.104E+00    0.221E+01
DAV:  58    -0.918723324808E+03    0.81548E-01   -0.22112E-01  3744   0.524E-01    0.195E+01
DAV:  59    -0.918671857918E+03    0.51467E-01   -0.46438E-01  3840   0.481E-01    0.191E+01
DAV:  60    -0.918708682286E+03   -0.36824E-01   -0.24984E-02  3408   0.241E-01    0.191E+01
DAV:  61    -0.918699685392E+03    0.89969E-02   -0.11010E-02  4416   0.779E-02    0.191E+01
DAV:  62    -0.918828338146E+03   -0.12865E+00   -0.28541E+00  3744   0.769E-01    0.190E+01
DAV:  63    -0.918836869865E+03   -0.85317E-02   -0.45102E-02  3600   0.303E-01    0.188E+01
DAV:  64    -0.918868317894E+03   -0.31448E-01   -0.17166E-02  4080   0.189E-01    0.189E+01
DAV:  65    -0.918870062809E+03   -0.17449E-02   -0.42887E-03  3504   0.841E-02    0.188E+01
DAV:  66    -0.918945210807E+03   -0.75148E-01   -0.77006E-02  3600   0.231E-01    0.181E+01
DAV:  67    -0.918696610026E+03    0.24860E+00   -0.57060E-01  3984   0.918E-01    0.192E+01
DAV:  68    -0.918676073905E+03    0.20536E-01   -0.29336E-01  4272   0.646E-01    0.187E+01
DAV:  69    -0.918691424893E+03   -0.15351E-01   -0.79070E-02  3648   0.334E-01    0.192E+01
DAV:  70    -0.918665591619E+03    0.25833E-01   -0.83689E-03  3984   0.137E-01    0.191E+01
DAV:  71    -0.918649180310E+03    0.16411E-01   -0.10544E-03  4416   0.399E-02    0.192E+01
DAV:  72    -0.918670115716E+03   -0.20935E-01   -0.17391E-01  3792   0.509E-01    0.198E+01
DAV:  73    -0.918728879955E+03   -0.58764E-01   -0.48296E-01  4032   0.563E-01    0.163E+01
DAV:  74    -0.918752160081E+03   -0.23280E-01   -0.95426E-02  3696   0.281E-01    0.173E+01
DAV:  75    -0.918764812083E+03   -0.12652E-01   -0.15410E-01  4032   0.290E-01    0.162E+01
DAV:  76    -0.918901576212E+03   -0.13676E+00   -0.10660E+00  3792   0.555E-01    0.219E+01
DAV:  77    -0.918634137428E+03    0.26744E+00   -0.66721E-01  3792   0.888E-01    0.135E+01
DAV:  78    -0.918658210874E+03   -0.24073E-01   -0.21159E-01  3984   0.610E-01    0.130E+01
DAV:  79    -0.918728643539E+03   -0.70433E-01   -0.50012E-01  3888   0.402E-01    0.130E+01
DAV:  80    -0.918733672576E+03   -0.50290E-02   -0.71991E-02  3888   0.367E-01    0.129E+01
DAV:  81    -0.918723941584E+03    0.97310E-02   -0.85979E-03  3552   0.132E-01    0.130E+01
DAV:  82    -0.918671032470E+03    0.52909E-01   -0.51946E-01  3840   0.753E-01    0.120E+01
DAV:  83    -0.918643011427E+03    0.28021E-01   -0.18678E-01  3840   0.368E-01    0.101E+01
DAV:  84    -0.918670760203E+03   -0.27749E-01   -0.11802E-01  3840   0.340E-01    0.923E+00
DAV:  85    -0.918750767889E+03   -0.80008E-01   -0.44137E-01  3888   0.547E-01    0.116E+01
DAV:  86    -0.918751059012E+03   -0.29112E-03   -0.53727E-02  3648   0.265E-01    0.116E+01
DAV:  87    -0.918668485472E+03    0.82574E-01   -0.24479E+00  3936   0.109E+00    0.117E+01
DAV:  88    -0.918742544338E+03   -0.74059E-01   -0.73534E-01  4032   0.861E-01    0.153E+01
DAV:  89    -0.918913923438E+03   -0.17138E+00   -0.63218E-01  3936   0.799E-01    0.122E+01
DAV:  90    -0.918963886875E+03   -0.49963E-01   -0.64614E-02  3840   0.318E-01
 -----------------------------------------------------------------------------
|                                                                             |
|           W    W    AA    RRRRR   N    N  II  N    N   GGGG   !!!           |
|           W    W   A  A   R    R  NN   N  II  NN   N  G    G  !!!           |
|           W    W  A    A  R    R  N N  N  II  N N  N  G       !!!           |
|           W WW W  AAAAAA  RRRRR   N  N N  II  N  N N  G  GGG   !            |
|           WW  WW  A    A  R   R   N   NN  II  N   NN  G    G                |
|           W    W  A    A  R    R  N    N  II  N    N   GGGG   !!!           |
|                                                                             |
|     The electronic self-consistency was not achieved in the given           |
|     number of steps (NELM). The forces and other quantities evaluated       |
|     might not be reliable so examine the results carefully. If you find     |
|     spurious results, we suggest increasing NELM, if you were close to      |
|     convergence or switching to a different ALGO or adjusting the           |
|     density mixing parameters otherwise.                                    |
|                                                                             |
 -----------------------------------------------------------------------------

   6 F= -.91896389E+03 E0= -.91894151E+03  d E =-.304132E-01  mag=    31.7285
 trial-energy change:   -0.030413  1 .order    1.087113   -8.300050   10.474277
 step:   0.4675(harm=  0.3892)  dis= 0.11566  next Energy=  -921.304648 (dE=-0.237E+01)
 bond charge predicted
       N       E                     dE             d eps       ncg     rms          rms(c)
DAV:   1    -0.919907868452E+03   -0.99395E+00   -0.50121E+02  2688   0.251E+01    0.181E+01
DAV:   2    -0.923365691132E+03   -0.34578E+01   -0.51416E+01  3984   0.864E+00    0.244E+01
DAV:   3    -0.921801024979E+03    0.15647E+01   -0.56072E+00  4272   0.366E+00    0.184E+01
DAV:   4    -0.921933116949E+03   -0.13209E+00   -0.48858E+00  3984   0.267E+00    0.165E+01
DAV:   5    -0.921817619499E+03    0.11550E+00   -0.88030E+00  4080   0.305E+00    0.155E+01
DAV:   6    -0.921440740037E+03    0.37688E+00   -0.12475E+01  4320   0.239E+00    0.671E+00
DAV:   7    -0.921503844625E+03   -0.63105E-01   -0.18360E+00  4032   0.196E+00    0.515E+00
DAV:   8    -0.921290771927E+03    0.21307E+00   -0.64747E-01  4704   0.129E+00    0.330E+00
DAV:   9    -0.921295266184E+03   -0.44943E-02   -0.17790E-01  4176   0.588E-01    0.269E+00
DAV:  10    -0.921284711264E+03    0.10555E-01   -0.98677E-02  4368   0.455E-01    0.233E+00
DAV:  11    -0.921267552263E+03    0.17159E-01   -0.43866E-02  4368   0.330E-01    0.157E+00
DAV:  12    -0.921266742841E+03    0.80942E-03   -0.21792E-02  4224   0.229E-01    0.123E+00
DAV:  13    -0.921265153156E+03    0.15897E-02   -0.11036E-02  4560   0.160E-01    0.912E-01
DAV:  14    -0.921263674642E+03    0.14785E-02   -0.76045E-03  4560   0.127E-01    0.636E-01
DAV:  15    -0.921264968530E+03   -0.12939E-02   -0.65482E-03  4656   0.117E-01    0.443E-01
DAV:  16    -0.921266653467E+03   -0.16849E-02   -0.36233E-03  4416   0.109E-01    0.168E-01
DAV:  17    -0.921268119178E+03   -0.14657E-02   -0.18462E-03  3888   0.610E-02    0.112E-01
DAV:  18    -0.921269493067E+03   -0.13739E-02   -0.47065E-04  4656   0.348E-02    0.748E-02
DAV:  19    -0.921270824203E+03   -0.13311E-02   -0.42802E-04  4176   0.256E-02    0.746E-02
DAV:  20    -0.921271722417E+03   -0.89821E-03   -0.24638E-04  4032   0.176E-02    0.490E-02
DAV:  21    -0.921272561807E+03   -0.83939E-03   -0.29550E-04  3696   0.147E-02    0.435E-02
DAV:  22    -0.921272811833E+03   -0.25003E-03   -0.81322E-05  4320   0.106E-02    0.384E-02
DAV:  23    -0.921273084906E+03   -0.27307E-03   -0.75775E-05  3696   0.699E-03    0.381E-02
DAV:  24    -0.921273338821E+03   -0.25391E-03   -0.74041E-05  3936   0.617E-03    0.383E-02
DAV:  25    -0.921273488333E+03   -0.14951E-03   -0.34318E-05  3888   0.420E-03    0.384E-02
DAV:  26    -0.921273329921E+03    0.15841E-03   -0.46224E-05  3648   0.489E-03    0.398E-02
DAV:  27    -0.921273968458E+03   -0.63854E-03   -0.10750E-03  3696   0.201E-02    0.396E-02
DAV:  28    -0.921274466350E+03   -0.49789E-03   -0.16304E-03  3696   0.263E-02    0.437E-02
DAV:  29    -0.921274757072E+03   -0.29072E-03   -0.13424E-03  3888   0.242E-02    0.463E-02
DAV:  30    -0.921274764852E+03   -0.77796E-05   -0.12602E-04  3216   0.118E-02    0.519E-02
DAV:  31    -0.921274796776E+03   -0.31924E-04   -0.34516E-05  3456   0.454E-03    0.485E-02
DAV:  32    -0.921274934971E+03   -0.13820E-03   -0.11019E-03  3792   0.221E-02    0.460E-02
DAV:  33    -0.921274981970E+03   -0.46998E-04   -0.28818E-03  3792   0.372E-02    0.381E-02
DAV:  34    -0.921275073296E+03   -0.91327E-04   -0.85688E-04  4080   0.232E-02    0.408E-02
DAV:  35    -0.921275124293E+03   -0.50996E-04   -0.76741E-05  4128   0.831E-03    0.368E-02
DAV:  36    -0.921275171111E+03   -0.46819E-04   -0.14038E-04  3456   0.867E-03    0.282E-02
DAV:  37    -0.921275211654E+03   -0.40543E-04   -0.51529E-05  3984   0.705E-03    0.210E-02
DAV:  38    -0.921275246625E+03   -0.34971E-04   -0.22673E-04  3312   0.109E-02    0.104E-02
DAV:  39    -0.921275265641E+03   -0.19016E-04   -0.17376E-04  4032   0.104E-02    0.743E-03
DAV:  40    -0.921275290886E+03   -0.25245E-04   -0.40266E-05  3456   0.568E-03    0.534E-03
DAV:  41    -0.921275300343E+03   -0.94564E-05   -0.58732E-05  3168   0.491E-03    0.693E-03
DAV:  42    -0.921275315316E+03   -0.14974E-04   -0.17767E-05  2832   0.317E-03    0.241E-03
DAV:  43    -0.921275326070E+03   -0.10754E-04   -0.85777E-07  1920   0.110E-03    0.265E-03
DAV:  44    -0.921275333142E+03   -0.70722E-05   -0.26271E-07  1728   0.754E-04    0.167E-03
DAV:  45    -0.921275339017E+03   -0.58746E-05   -0.46176E-07  1824   0.768E-04    0.144E-03
DAV:  46    -0.921275343688E+03   -0.46706E-05   -0.29156E-07  1680   0.777E-04    0.114E-03
DAV:  47    -0.921275346580E+03   -0.28928E-05   -0.12779E-07  1728   0.652E-04    0.906E-04
DAV:  48    -0.921275350224E+03   -0.36433E-05   -0.76062E-07  1824   0.813E-04    0.808E-04
DAV:  49    -0.921275352144E+03   -0.19199E-05   -0.12937E-07  1632   0.768E-04    0.664E-04
DAV:  50    -0.921275355367E+03   -0.32236E-05   -0.11220E-07  1728   0.475E-04    0.624E-04
DAV:  51    -0.921275356915E+03   -0.15478E-05   -0.12294E-07  1632   0.545E-04    0.648E-04
DAV:  52    -0.921275357461E+03   -0.54613E-06   -0.11008E-07  1632   0.423E-04
   7 F= -.92127536E+03 E0= -.92127457E+03  d E =-.234188E+01  mag=    31.9889
 curvature:  -0.25 expect dE=-0.706E+00 dE for cont linesearch -0.190E-04
 trial: gam= 0.27841 g(F)=  0.280E+01 g(S)=  0.000E+00 ort =-0.308E-01 (trialstep = 0.798E+00)
 search vector abs. value=  0.376E+01
 bond charge predicted
       N       E                     dE             d eps       ncg     rms          rms(c)
DAV:   1    -0.920522575425E+03    0.75278E+00   -0.58575E+02  2688   0.280E+01    0.103E+01
DAV:   2    -0.922585261722E+03   -0.20627E+01   -0.20855E+01  3696   0.681E+00    0.183E+01
DAV:   3    -0.922088188922E+03    0.49707E+00   -0.33772E+00  3984   0.227E+00    0.111E+01
DAV:   4    -0.922519307216E+03   -0.43112E+00   -0.55967E+00  3984   0.164E+00    0.280E+01
DAV:   5    -0.922018275559E+03    0.50103E+00   -0.49463E+00  3984   0.100E+00    0.115E+01
DAV:   6    -0.921923596399E+03    0.94679E-01   -0.41508E+00  3744   0.168E+00    0.755E+00
DAV:   7    -0.921884508132E+03    0.39088E-01   -0.25441E+00  4320   0.145E+00    0.833E+00
DAV:   8    -0.921893820798E+03   -0.93127E-02   -0.27228E-01  3648   0.609E-01    0.830E+00
DAV:   9    -0.921896428820E+03   -0.26080E-02   -0.40178E-01  4464   0.540E-01    0.104E+01
DAV:  10    -0.921908545349E+03   -0.12117E-01   -0.99665E-02  3936   0.411E-01    0.121E+01
DAV:  11    -0.921824410978E+03    0.84134E-01   -0.21660E-01  3792   0.556E-01    0.106E+01
DAV:  12    -0.921751439097E+03    0.72972E-01   -0.12265E-01  4224   0.413E-01    0.738E+00
DAV:  13    -0.921687772206E+03    0.63667E-01   -0.24705E-01  4032   0.407E-01    0.354E+00
DAV:  14    -0.921722366769E+03   -0.34595E-01   -0.84091E-02  3792   0.279E-01    0.311E+00
DAV:  15    -0.921744583748E+03   -0.22217E-01   -0.71947E-02  3888   0.300E-01    0.263E+00
DAV:  16    -0.921757238860E+03   -0.12655E-01   -0.73204E-02  4128   0.290E-01    0.188E+00
DAV:  17    -0.921765262639E+03   -0.80238E-02   -0.37980E-02  4128   0.225E-01    0.149E+00
DAV:  18    -0.921768500507E+03   -0.32379E-02   -0.23952E-02  3744   0.157E-01    0.118E+00
DAV:  19    -0.921769113821E+03   -0.61331E-03   -0.16601E-02  4128   0.146E-01    0.101E+00
DAV:  20    -0.921770427533E+03   -0.13137E-02   -0.53727E-03  3936   0.875E-02    0.901E-01
DAV:  21    -0.921771325640E+03   -0.89811E-03   -0.20658E-03  4080   0.504E-02    0.806E-01
DAV:  22    -0.921772041827E+03   -0.71619E-03   -0.21262E-03  4080   0.485E-02    0.688E-01
DAV:  23    -0.921772201473E+03   -0.15965E-03   -0.10342E-03  4176   0.386E-02    0.610E-01
DAV:  24    -0.921771695919E+03    0.50555E-03   -0.11900E-03  3936   0.366E-02    0.546E-01
DAV:  25    -0.921771531131E+03    0.16479E-03   -0.24812E-04  4032   0.230E-02    0.511E-01
DAV:  26    -0.921771403150E+03    0.12798E-03   -0.17066E-04  4272   0.168E-02    0.483E-01
DAV:  27    -0.921771309364E+03    0.93786E-04   -0.98706E-05  4176   0.146E-02    0.453E-01
DAV:  28    -0.921771239858E+03    0.69506E-04   -0.15632E-04  4608   0.204E-02    0.399E-01
DAV:  29    -0.921771185225E+03    0.54633E-04   -0.19034E-04  4320   0.244E-02    0.329E-01
DAV:  30    -0.921771256168E+03   -0.70943E-04   -0.16163E-04  4032   0.163E-02    0.287E-01
DAV:  31    -0.921771317608E+03   -0.61440E-04   -0.43606E-05  4032   0.686E-03    0.278E-01
DAV:  32    -0.921771319201E+03   -0.15925E-05   -0.32006E-06  3600   0.255E-03    0.278E-01
DAV:  33    -0.921771331285E+03   -0.12085E-04   -0.18167E-06  2592   0.168E-03    0.276E-01
DAV:  34    -0.921771331658E+03   -0.37270E-06   -0.35651E-07  2208   0.109E-03
   8 F= -.92177133E+03 E0= -.92177124E+03  d E =-.495974E+00  mag=    32.0012
 trial-energy change:   -0.495974  1 .order   -0.597955   -2.230333    1.034422
 step:   0.5106(harm=  0.5450)  dis= 0.05110  next Energy=  -921.962302 (dE=-0.687E+00)
 bond charge predicted
       N       E                     dE             d eps       ncg     rms          rms(c)
DAV:   1    -0.921812883645E+03   -0.41552E-01   -0.75595E+01  2688   0.100E+01    0.411E+00
DAV:   2    -0.922055130351E+03   -0.24225E+00   -0.26479E+00  3696   0.240E+00    0.513E+00
DAV:   3    -0.921971062203E+03    0.84068E-01   -0.26927E-01  4512   0.865E-01    0.351E+00
DAV:   4    -0.921987078825E+03   -0.16017E-01   -0.21745E-01  3648   0.527E-01    0.279E+00
DAV:   5    -0.921986095617E+03    0.98321E-03   -0.35384E-01  4320   0.688E-01    0.203E+00
DAV:   6    -0.921958354345E+03    0.27741E-01   -0.27701E-01  4848   0.473E-01    0.662E-01
DAV:   7    -0.921958514361E+03   -0.16002E-03   -0.21876E-02  4032   0.216E-01    0.416E-01
DAV:   8    -0.921958113873E+03    0.40049E-03   -0.53047E-03  4704   0.108E-01    0.271E-01
DAV:   9    -0.921958782292E+03   -0.66842E-03   -0.26075E-03  4080   0.764E-02    0.191E-01
DAV:  10    -0.921959457848E+03   -0.67556E-03   -0.20577E-03  4080   0.672E-02    0.119E-01
DAV:  11    -0.921959823487E+03   -0.36564E-03   -0.80025E-04  4560   0.403E-02    0.762E-02
DAV:  12    -0.921960139427E+03   -0.31594E-03   -0.36072E-04  4224   0.243E-02    0.565E-02
DAV:  13    -0.921960510883E+03   -0.37146E-03   -0.28831E-04  4032   0.178E-02    0.515E-02
DAV:  14    -0.921960897964E+03   -0.38708E-03   -0.35495E-04  3840   0.160E-02    0.422E-02
DAV:  15    -0.921961366868E+03   -0.46890E-03   -0.73524E-04  3696   0.202E-02    0.339E-02
DAV:  16    -0.921961672488E+03   -0.30562E-03   -0.54503E-04  3984   0.176E-02    0.278E-02
DAV:  17    -0.921961882618E+03   -0.21013E-03   -0.32549E-04  3744   0.129E-02    0.234E-02
DAV:  18    -0.921962080980E+03   -0.19836E-03   -0.44597E-04  3504   0.139E-02    0.180E-02
DAV:  19    -0.921962245096E+03   -0.16412E-03   -0.28595E-04  3840   0.114E-02    0.152E-02
DAV:  20    -0.921962336987E+03   -0.91891E-04   -0.11240E-04  3888   0.760E-03    0.115E-02
DAV:  21    -0.921962414180E+03   -0.77193E-04   -0.13961E-04  3648   0.756E-03    0.848E-03
DAV:  22    -0.921962480569E+03   -0.66388E-04   -0.77054E-05  3936   0.597E-03    0.654E-03
DAV:  23    -0.921962524055E+03   -0.43487E-04   -0.50532E-05  3456   0.452E-03    0.420E-03
DAV:  24    -0.921962538962E+03   -0.14907E-04   -0.18683E-05  3408   0.314E-03    0.296E-03
DAV:  25    -0.921962547149E+03   -0.81866E-05   -0.11188E-05  3072   0.226E-03    0.187E-03
DAV:  26    -0.921962553601E+03   -0.64520E-05   -0.95907E-07  2160   0.127E-03    0.136E-03
DAV:  27    -0.921962558587E+03   -0.49861E-05   -0.23755E-07  1920   0.857E-04    0.992E-04
DAV:  28    -0.921962561140E+03   -0.25533E-05   -0.12678E-07  1632   0.664E-04    0.706E-04
DAV:  29    -0.921962563719E+03   -0.25784E-05   -0.19530E-07  1824   0.596E-04    0.657E-04
DAV:  30    -0.921962565664E+03   -0.19456E-05   -0.83654E-08  1632   0.566E-04    0.616E-04
DAV:  31    -0.921962567887E+03   -0.22231E-05   -0.12179E-07  1824   0.464E-04    0.600E-04
DAV:  32    -0.921962570136E+03   -0.22487E-05   -0.10927E-07  1776   0.521E-04    0.578E-04
DAV:  33    -0.921962571971E+03   -0.18352E-05   -0.90893E-08  1728   0.450E-04    0.565E-04
DAV:  34    -0.921962573031E+03   -0.10595E-05   -0.11391E-07  1632   0.469E-04    0.555E-04
DAV:  35    -0.921962573592E+03   -0.56118E-06   -0.53790E-08  1632   0.414E-04
   9 F= -.92196257E+03 E0= -.92196257E+03  d E =-.687216E+00  mag=    32.0000
 curvature:  -0.36 expect dE=-0.456E+00 dE for cont linesearch -0.243E-05
 trial: gam= 0.38798 g(F)=  0.127E+01 g(S)=  0.000E+00 ort = 0.504E-02 (trialstep = 0.740E+00)
 search vector abs. value=  0.184E+01
 bond charge predicted
       N       E                     dE             d eps       ncg     rms          rms(c)
DAV:   1    -0.921798756572E+03    0.16382E+00   -0.23783E+02  2688   0.180E+01    0.730E+00
DAV:   2    -0.922600935462E+03   -0.80218E+00   -0.86597E+00  3888   0.483E+00    0.955E+00
DAV:   3    -0.922259542249E+03    0.34139E+00   -0.15330E+00  4656   0.185E+00    0.507E+00
DAV:   4    -0.922402560735E+03   -0.14302E+00   -0.14424E+00  3936   0.133E+00    0.592E+00
DAV:   5    -0.922264014826E+03    0.13855E+00   -0.24465E+00  4512   0.122E+00    0.321E+00
DAV:   6    -0.922215558358E+03    0.48456E-01   -0.45373E-01  4080   0.830E-01    0.160E+00
DAV:   7    -0.922201584094E+03    0.13974E-01   -0.11657E-01  4656   0.481E-01    0.761E-01
DAV:   8    -0.922201640343E+03   -0.56248E-04   -0.20111E-02  3888   0.209E-01    0.602E-01
DAV:   9    -0.922201700039E+03   -0.59696E-04   -0.80631E-03  4752   0.136E-01    0.481E-01
DAV:  10    -0.922201705700E+03   -0.56612E-05   -0.78534E-03  3984   0.117E-01    0.265E-01
DAV:  11    -0.922201827836E+03   -0.12214E-03   -0.31457E-03  4464   0.876E-02    0.125E-01
DAV:  12    -0.922201916802E+03   -0.88965E-04   -0.98132E-04  4512   0.495E-02    0.758E-02
DAV:  13    -0.922202037234E+03   -0.12043E-03   -0.30890E-04  4464   0.274E-02    0.502E-02
DAV:  14    -0.922202204630E+03   -0.16740E-03   -0.10875E-04  4320   0.157E-02    0.345E-02
DAV:  15    -0.922202376032E+03   -0.17140E-03   -0.45682E-05  4992   0.965E-03    0.195E-02
DAV:  16    -0.922202549505E+03   -0.17347E-03   -0.22687E-05  3840   0.704E-03    0.117E-02
DAV:  17    -0.922202688959E+03   -0.13945E-03   -0.93331E-06  3600   0.442E-03    0.782E-03
DAV:  18    -0.922202803378E+03   -0.11442E-03   -0.51475E-06  3264   0.325E-03    0.616E-03
DAV:  19    -0.922202903051E+03   -0.99672E-04   -0.31811E-06  2928   0.235E-03    0.411E-03
DAV:  20    -0.922202996958E+03   -0.93907E-04   -0.33550E-06  2976   0.208E-03    0.327E-03
DAV:  21    -0.922203086876E+03   -0.89918E-04   -0.34938E-06  3024   0.193E-03    0.295E-03
DAV:  22    -0.922203155799E+03   -0.68923E-04   -0.30721E-06  2688   0.173E-03    0.276E-03
DAV:  23    -0.922203185361E+03   -0.29563E-04   -0.94012E-07  2256   0.130E-03    0.210E-03
DAV:  24    -0.922203205220E+03   -0.19859E-04   -0.66914E-07  1968   0.117E-03    0.173E-03
DAV:  25    -0.922203219434E+03   -0.14214E-04   -0.52696E-07  2016   0.110E-03    0.141E-03
DAV:  26    -0.922203230611E+03   -0.11177E-04   -0.54473E-07  1872   0.111E-03    0.119E-03
DAV:  27    -0.922203238642E+03   -0.80308E-05   -0.56635E-07  1920   0.111E-03    0.107E-03
DAV:  28    -0.922203243214E+03   -0.45717E-05   -0.37677E-07  1728   0.101E-03    0.928E-04
DAV:  29    -0.922203245779E+03   -0.25652E-05   -0.27100E-07  1632   0.902E-04    0.874E-04
DAV:  30    -0.922203248008E+03   -0.22287E-05   -0.25940E-07  1728   0.827E-04    0.859E-04
DAV:  31    -0.922203249433E+03   -0.14256E-05   -0.20635E-07  1632   0.793E-04    0.808E-04
DAV:  32    -0.922203250824E+03   -0.13905E-05   -0.29159E-07  1680   0.761E-04    0.790E-04
DAV:  33    -0.922203251455E+03   -0.63115E-06   -0.32775E-07  1728   0.820E-04
  10 F= -.92220325E+03 E0= -.92220325E+03  d E =-.240678E+00  mag=    32.0000
 trial-energy change:   -0.240678  1 .order   -0.236356   -0.941654    0.468943
 step:   0.4972(harm=  0.4942)  dis= 0.03877  next Energy=  -922.280096 (dE=-0.318E+00)
 bond charge predicted
       N       E                     dE             d eps       ncg     rms          rms(c)
DAV:   1    -0.922238695756E+03   -0.35445E-01   -0.25615E+01  2688   0.592E+00    0.256E+00
DAV:   2    -0.922321478741E+03   -0.82783E-01   -0.89883E-01  3888   0.157E+00    0.303E+00
DAV:   3    -0.922283491401E+03    0.37987E-01   -0.12170E-01  4608   0.616E-01    0.173E+00
DAV:   4    -0.922293135607E+03   -0.96442E-02   -0.11485E-01  3792   0.406E-01    0.142E+00
DAV:   5    -0.922284507176E+03    0.86284E-02   -0.13696E-01  4416   0.399E-01    0.853E-01
DAV:   6    -0.922279064545E+03    0.54426E-02   -0.72249E-02  4320   0.234E-01    0.309E-01
DAV:   7    -0.922279262182E+03   -0.19764E-03   -0.67961E-03  4320   0.111E-01    0.183E-01
DAV:   8    -0.922279339127E+03   -0.76944E-04   -0.20588E-03  4752   0.616E-02    0.135E-01
DAV:   9    -0.922279423079E+03   -0.83952E-04   -0.77256E-04  4176   0.423E-02    0.972E-02
DAV:  10    -0.922279555974E+03   -0.13290E-03   -0.51643E-04  4464   0.347E-02    0.579E-02
DAV:  11    -0.922279600438E+03   -0.44464E-04   -0.20710E-04  4656   0.221E-02    0.293E-02
DAV:  12    -0.922279639719E+03   -0.39281E-04   -0.66544E-05  4368   0.124E-02    0.174E-02
DAV:  13    -0.922279687895E+03   -0.48177E-04   -0.25323E-05  4368   0.716E-03    0.152E-02
DAV:  14    -0.922279730774E+03   -0.42879E-04   -0.10707E-05  3552   0.448E-03    0.889E-03
DAV:  15    -0.922279771445E+03   -0.40670E-04   -0.87644E-06  3360   0.321E-03    0.658E-03
DAV:  16    -0.922279799705E+03   -0.28261E-04   -0.55327E-06  3360   0.242E-03    0.589E-03
DAV:  17    -0.922279828662E+03   -0.28957E-04   -0.64044E-06  2784   0.215E-03    0.510E-03
DAV:  18    -0.922279863571E+03   -0.34909E-04   -0.13934E-05  3456   0.267E-03    0.478E-03
DAV:  19    -0.922279890699E+03   -0.27128E-04   -0.15553E-05  3216   0.275E-03    0.446E-03
DAV:  20    -0.922279906820E+03   -0.16121E-04   -0.12632E-05  3168   0.239E-03    0.413E-03
DAV:  21    -0.922279915542E+03   -0.87224E-05   -0.15497E-05  3120   0.252E-03    0.361E-03
DAV:  22    -0.922279912956E+03    0.25861E-05   -0.26075E-05  3264   0.313E-03    0.304E-03
DAV:  23    -0.922279907669E+03    0.52876E-05   -0.16378E-05  3312   0.260E-03    0.282E-03
DAV:  24    -0.922279903946E+03    0.37222E-05   -0.70407E-06  2880   0.175E-03    0.230E-03
DAV:  25    -0.922279904211E+03   -0.26423E-06   -0.69413E-06  2976   0.171E-03
  11 F= -.92227990E+03 E0= -.92227990E+03  d E =-.317331E+00  mag=    32.0000
 curvature:  -0.36 expect dE=-0.285E+00 dE for cont linesearch -0.145E-07
 trial: gam= 0.60306 g(F)=  0.798E+00 g(S)=  0.000E+00 ort = 0.274E-03 (trialstep = 0.692E+00)
 search vector abs. value=  0.147E+01
 bond charge predicted
       N       E                     dE             d eps       ncg     rms          rms(c)
DAV:   1    -0.922083010450E+03    0.19689E+00   -0.17212E+02  2688   0.158E+01    0.505E+00
DAV:   2    -0.922605783213E+03   -0.52277E+00   -0.63055E+00  3936   0.413E+00    0.749E+00
DAV:   3    -0.922560062950E+03    0.45720E-01   -0.76210E-01  4368   0.119E+00    0.474E+00
DAV:   4    -0.922713673825E+03   -0.15361E+00   -0.17771E+00  4128   0.953E-01    0.132E+01
DAV:   5    -0.922496449565E+03    0.21722E+00   -0.24274E+00  4656   0.746E-01    0.336E+00
DAV:   6    -0.922518099798E+03   -0.21650E-01   -0.27450E-01  3936   0.749E-01    0.226E+00
DAV:   7    -0.922509143528E+03    0.89563E-02   -0.13884E-01  4656   0.578E-01    0.155E+00
DAV:   8    -0.922501614455E+03    0.75291E-02   -0.62999E-02  4224   0.339E-01    0.109E+00
DAV:   9    -0.922499447698E+03    0.21668E-02   -0.30455E-02  4704   0.197E-01    0.811E-01
DAV:  10    -0.922497896950E+03    0.15507E-02   -0.98085E-03  4320   0.133E-01    0.572E-01
DAV:  11    -0.922497333428E+03    0.56352E-03   -0.51989E-03  4416   0.109E-01    0.452E-01
DAV:  12    -0.922497297113E+03    0.36316E-04   -0.14806E-03  4080   0.624E-02    0.356E-01
DAV:  13    -0.922497394878E+03   -0.97765E-04   -0.56312E-04  4032   0.366E-02    0.288E-01
DAV:  14    -0.922497588502E+03   -0.19362E-03   -0.59225E-04  4464   0.283E-02    0.210E-01
DAV:  15    -0.922497693651E+03   -0.10515E-03   -0.20719E-04  4128   0.173E-02    0.182E-01
DAV:  16    -0.922497735010E+03   -0.41359E-04   -0.58619E-05  4128   0.792E-03    0.171E-01
DAV:  17    -0.922497717430E+03    0.17579E-04   -0.41410E-05  3888   0.501E-03    0.179E-01
DAV:  18    -0.922497710011E+03    0.74192E-05   -0.14881E-04  3504   0.658E-03    0.187E-01
DAV:  19    -0.922497728183E+03   -0.18172E-04   -0.48757E-04  3648   0.112E-02    0.183E-01
DAV:  20    -0.922497786450E+03   -0.58267E-04   -0.24863E-04  3984   0.112E-02    0.159E-01
DAV:  21    -0.922497901156E+03   -0.11471E-03   -0.11706E-04  3840   0.109E-02    0.113E-01
DAV:  22    -0.922497971867E+03   -0.70711E-04   -0.51051E-05  4080   0.793E-03    0.826E-02
DAV:  23    -0.922498023323E+03   -0.51456E-04   -0.18238E-05  3984   0.478E-03    0.640E-02
DAV:  24    -0.922498073232E+03   -0.49909E-04   -0.15287E-05  3888   0.389E-03    0.419E-02
DAV:  25    -0.922498125222E+03   -0.51991E-04   -0.17804E-05  3840   0.392E-03    0.199E-02
DAV:  26    -0.922498147268E+03   -0.22046E-04   -0.36742E-06  3168   0.258E-03    0.100E-02
DAV:  27    -0.922498163596E+03   -0.16327E-04   -0.21307E-06  2640   0.187E-03    0.391E-03
DAV:  28    -0.922498173905E+03   -0.10309E-04   -0.82386E-07  2304   0.141E-03    0.200E-03
DAV:  29    -0.922498179984E+03   -0.60792E-05   -0.36239E-07  1776   0.114E-03    0.188E-03
DAV:  30    -0.922498188051E+03   -0.80669E-05   -0.35677E-07  1920   0.954E-04    0.269E-03
DAV:  31    -0.922498194628E+03   -0.65768E-05   -0.25160E-07  1920   0.915E-04    0.270E-03
DAV:  32    -0.922498198561E+03   -0.39334E-05   -0.18138E-07  1632   0.738E-04    0.187E-03
DAV:  33    -0.922498201798E+03   -0.32365E-05   -0.13248E-07  1728   0.619E-04    0.151E-03
DAV:  34    -0.922498204442E+03   -0.26439E-05   -0.97698E-08  1632   0.551E-04    0.105E-03
DAV:  35    -0.922498208362E+03   -0.39199E-05   -0.12614E-07  1824   0.502E-04    0.660E-04
DAV:  36    -0.922498211932E+03   -0.35703E-05   -0.11574E-07  1824   0.533E-04    0.636E-04
DAV:  37    -0.922498213618E+03   -0.16863E-05   -0.79609E-08  1632   0.482E-04    0.637E-04
DAV:  38    -0.922498214323E+03   -0.70501E-06   -0.56348E-08  1632   0.418E-04
  12 F= -.92249821E+03 E0= -.92249820E+03  d E =-.218310E+00  mag=    32.0000
 trial-energy change:   -0.218310  1 .order   -0.211078   -0.552246    0.130089
 step:   0.5664(harm=  0.5598)  dis= 0.03719  next Energy=  -922.509959 (dE=-0.230E+00)
 bond charge predicted
       N       E                     dE             d eps       ncg     rms          rms(c)
DAV:   1    -0.922496912592E+03    0.13010E-02   -0.56665E+00  2688   0.288E+00    0.945E-01
DAV:   2    -0.922512242825E+03   -0.15330E-01   -0.18577E-01  3984   0.730E-01    0.116E+00
DAV:   3    -0.922510760851E+03    0.14820E-02   -0.18141E-02  4416   0.210E-01    0.790E-01
DAV:   4    -0.922512423041E+03   -0.16622E-02   -0.14877E-02  4224   0.154E-01    0.801E-01
DAV:   5    -0.922510843145E+03    0.15799E-02   -0.22901E-02  4512   0.162E-01    0.480E-01
DAV:   6    -0.922509763442E+03    0.10797E-02   -0.11929E-02  4464   0.114E-01    0.257E-01
DAV:   7    -0.922509736646E+03    0.26796E-04   -0.24575E-03  4176   0.573E-02    0.128E-01
DAV:   8    -0.922509721914E+03    0.14732E-04   -0.58091E-04  4512   0.319E-02    0.120E-01
DAV:   9    -0.922509723836E+03   -0.19219E-05   -0.32909E-04  4512   0.237E-02    0.811E-02
DAV:  10    -0.922509724582E+03   -0.74632E-06   -0.28301E-04  4320   0.200E-02    0.419E-02
DAV:  11    -0.922509735345E+03   -0.10763E-04   -0.79117E-05  4368   0.121E-02    0.201E-02
DAV:  12    -0.922509749116E+03   -0.13770E-04   -0.24106E-05  4560   0.695E-03    0.166E-02
DAV:  13    -0.922509764616E+03   -0.15500E-04   -0.12118E-05  4032   0.416E-03    0.135E-02
DAV:  14    -0.922509776411E+03   -0.11795E-04   -0.77728E-06  3216   0.292E-03    0.107E-02
DAV:  15    -0.922509782202E+03   -0.57908E-05   -0.35071E-06  2640   0.185E-03    0.110E-02
DAV:  16    -0.922509776790E+03    0.54116E-05   -0.46373E-06  2304   0.172E-03    0.107E-02
DAV:  17    -0.922509772999E+03    0.37918E-05   -0.90839E-06  2640   0.192E-03    0.942E-03
DAV:  18    -0.922509766493E+03    0.65054E-05   -0.53112E-05  3216   0.332E-03    0.698E-03
DAV:  19    -0.922509776463E+03   -0.99696E-05   -0.63889E-06  3168   0.232E-03    0.630E-03
DAV:  20    -0.922509788355E+03   -0.11892E-04   -0.13018E-06  2112   0.141E-03    0.380E-03
DAV:  21    -0.922509800510E+03   -0.12155E-04   -0.55580E-07  2016   0.115E-03    0.248E-03
DAV:  22    -0.922509810547E+03   -0.10037E-04   -0.40930E-07  2016   0.107E-03    0.187E-03
DAV:  23    -0.922509816905E+03   -0.63578E-05   -0.41398E-07  1872   0.970E-04    0.140E-03
DAV:  24    -0.922509823239E+03   -0.63336E-05   -0.40631E-07  1968   0.855E-04    0.111E-03
DAV:  25    -0.922509830373E+03   -0.71344E-05   -0.52845E-07  1968   0.873E-04    0.921E-04
DAV:  26    -0.922509836488E+03   -0.61144E-05   -0.27941E-07  1920   0.792E-04    0.924E-04
DAV:  27    -0.922509841722E+03   -0.52341E-05   -0.26657E-07  1920   0.733E-04    0.861E-04
DAV:  28    -0.922509845542E+03   -0.38208E-05   -0.24037E-07  1824   0.685E-04    0.800E-04
DAV:  29    -0.922509848252E+03   -0.27093E-05   -0.21288E-07  1824   0.635E-04    0.716E-04
DAV:  30    -0.922509849530E+03   -0.12784E-05   -0.13104E-07  1632   0.575E-04    0.686E-04
DAV:  31    -0.922509850139E+03   -0.60865E-06   -0.77664E-08  1632   0.454E-04
  13 F= -.92250985E+03 E0= -.92250984E+03  d E =-.229946E+00  mag=    32.0000
 curvature:  -0.51 expect dE=-0.238E+00 dE for cont linesearch -0.557E-06
 trial: gam= 0.55654 g(F)=  0.463E+00 g(S)=  0.000E+00 ort = 0.126E-02 (trialstep = 0.667E+00)
 search vector abs. value=  0.919E+00
 bond charge predicted
       N       E                     dE             d eps       ncg     rms          rms(c)
DAV:   1    -0.922470096315E+03    0.39753E-01   -0.99296E+01  2688   0.119E+01    0.418E+00
DAV:   2    -0.922763238194E+03   -0.29314E+00   -0.37010E+00  3840   0.293E+00    0.420E+00
DAV:   3    -0.922701539000E+03    0.61699E-01   -0.77617E-01  4560   0.120E+00    0.288E+00
DAV:   4    -0.922688593158E+03    0.12946E-01   -0.33627E-01  4608   0.617E-01    0.192E+00
DAV:   5    -0.922707392324E+03   -0.18799E-01   -0.23869E-01  4512   0.621E-01    0.218E+00
DAV:   6    -0.922678110966E+03    0.29281E-01   -0.16802E-01  4272   0.478E-01    0.936E-01
DAV:   7    -0.922675044692E+03    0.30663E-02   -0.60726E-02  4224   0.249E-01    0.440E-01
DAV:   8    -0.922674632807E+03    0.41188E-03   -0.13551E-02  4752   0.139E-01    0.268E-01
[...]
DAV:   5    -0.923665650240E+03    0.25438E-04   -0.22379E-04  4368   0.244E-02    0.394E-02
DAV:   6    -0.923665650262E+03   -0.21755E-07   -0.92389E-05  4320   0.162E-02    0.254E-02
DAV:   7    -0.923665646347E+03    0.39147E-05   -0.31205E-05  4416   0.861E-03    0.110E-02
DAV:   8    -0.923665646627E+03   -0.27989E-06   -0.79716E-06  3888   0.478E-03
 124 F= -.92366565E+03 E0= -.92366565E+03  d E =-.263105E-03  mag=    32.0000
 trial-energy change:   -0.000263  1 .order   -0.000261   -0.000424   -0.000099
 step:   0.7173(harm=  0.7173)  dis= 0.00323  next Energy=  -923.665660 (dE=-0.277E-03)
 bond charge predicted
       N       E                     dE             d eps       ncg     rms          rms(c)
DAV:   1    -0.923665536627E+03    0.10972E-03   -0.59042E-02  2784   0.286E-01    0.548E-02
DAV:   2    -0.923665663576E+03   -0.12695E-03   -0.13995E-03  3312   0.556E-02    0.517E-02
DAV:   3    -0.923665662803E+03    0.77359E-06   -0.11957E-04  4560   0.182E-02    0.315E-02
DAV:   4    -0.923665665266E+03   -0.24629E-05   -0.35083E-05  4560   0.925E-03    0.253E-02
DAV:   5    -0.923665664621E+03    0.64417E-06   -0.21923E-05  4320   0.758E-03    0.136E-02
DAV:   6    -0.923665664365E+03    0.25633E-06   -0.98108E-06  4032   0.525E-03
 125 F= -.92366566E+03 E0= -.92366566E+03  d E =-.280843E-03  mag=    32.0000
 curvature:  -3.83 expect dE=-0.195E-02 dE for cont linesearch -0.290E-06
 trial: gam= 0.71902 g(F)=  0.509E-03 g(S)=  0.000E+00 ort = 0.250E-04 (trialstep = 0.583E+00)
 search vector abs. value=  0.480E-02
 bond charge predicted
       N       E                     dE             d eps       ncg     rms          rms(c)
DAV:   1    -0.923664976961E+03    0.68766E-03   -0.41790E-01  2688   0.758E-01    0.144E-01
DAV:   2    -0.923665852813E+03   -0.87585E-03   -0.94786E-03  3264   0.141E-01    0.119E-01
DAV:   3    -0.923665875703E+03   -0.22890E-04   -0.73500E-04  4656   0.457E-02    0.804E-02
DAV:   4    -0.923665879898E+03   -0.41944E-05   -0.25249E-04  4656   0.249E-02    0.673E-02
DAV:   5    -0.923665858619E+03    0.21279E-04   -0.14410E-04  4320   0.184E-02    0.269E-02
DAV:   6    -0.923665863346E+03   -0.47263E-05   -0.57929E-05  4080   0.123E-02    0.191E-02
DAV:   7    -0.923665861526E+03    0.18195E-05   -0.19117E-05  4464   0.679E-03    0.856E-03
DAV:   8    -0.923665861709E+03   -0.18263E-06   -0.65077E-06  3984   0.381E-03
 126 F= -.92366586E+03 E0= -.92366586E+03  d E =-.197343E-03  mag=    32.0000
 trial-energy change:   -0.000197  1 .order   -0.000197   -0.000307   -0.000088
 step:   0.8154(harm=  0.8154)  dis= 0.00297  next Energy=  -923.665879 (dE=-0.215E-03)
 bond charge predicted
       N       E                     dE             d eps       ncg     rms          rms(c)
DAV:   1    -0.923665738623E+03    0.12290E-03   -0.66517E-02  2688   0.303E-01    0.580E-02
DAV:   2    -0.923665876887E+03   -0.13826E-03   -0.15268E-03  3312   0.567E-02    0.486E-02
DAV:   3    -0.923665880710E+03   -0.38226E-05   -0.12082E-04  4800   0.182E-02    0.324E-02
DAV:   4    -0.923665881791E+03   -0.10809E-05   -0.38197E-05  4560   0.980E-03    0.273E-02
DAV:   5    -0.923665879816E+03    0.19750E-05   -0.23674E-05  4272   0.736E-03    0.120E-02
DAV:   6    -0.923665880728E+03   -0.91213E-06   -0.10679E-05  4080   0.517E-03    0.796E-03
DAV:   7    -0.923665880360E+03    0.36800E-06   -0.23942E-06  3072   0.282E-03
 127 F= -.92366588E+03 E0= -.92366588E+03  d E =-.215995E-03  mag=    32.0000
 curvature:  -3.71 expect dE=-0.223E-02 dE for cont linesearch -0.944E-07
 trial: gam= 1.14148 g(F)=  0.601E-03 g(S)=  0.000E+00 ort = 0.110E-04 (trialstep = 0.439E+00)
 search vector abs. value=  0.688E-02
 bond charge predicted
       N       E                     dE             d eps       ncg     rms          rms(c)
DAV:   1    -0.923665420745E+03    0.45998E-03   -0.33755E-01  2688   0.673E-01    0.130E-01
DAV:   2    -0.923666137879E+03   -0.71713E-03   -0.76738E-03  3408   0.123E-01    0.121E-01
DAV:   3    -0.923666102971E+03    0.34908E-04   -0.64724E-04  4464   0.431E-02    0.706E-02
DAV:   4    -0.923666091807E+03    0.11164E-04   -0.16683E-04  4272   0.212E-02    0.496E-02
DAV:   5    -0.923666096577E+03   -0.47701E-05   -0.11603E-04  3792   0.169E-02    0.342E-02
DAV:   6    -0.923666089542E+03    0.70345E-05   -0.53681E-05  4128   0.119E-02    0.129E-02
DAV:   7    -0.923666090213E+03   -0.67097E-06   -0.18663E-05  4512   0.608E-03    0.869E-03
DAV:   8    -0.923666089903E+03    0.31076E-06   -0.31652E-06  3312   0.355E-03
 128 F= -.92366609E+03 E0= -.92366609E+03  d E =-.209543E-03  mag=    32.0000
 trial-energy change:   -0.000210  1 .order   -0.000202   -0.000269   -0.000135
 step:   0.7268(harm=  0.8818)  dis= 0.00341  next Energy=  -923.666136 (dE=-0.256E-03)
 bond charge predicted
       N       E                     dE             d eps       ncg     rms          rms(c)
DAV:   1    -0.923665864857E+03    0.22536E-03   -0.14495E-01  2688   0.441E-01    0.857E-02
DAV:   2    -0.923666170811E+03   -0.30595E-03   -0.33022E-03  3408   0.809E-02    0.784E-02
DAV:   3    -0.923666158140E+03    0.12671E-04   -0.27739E-04  4464   0.283E-02    0.466E-02
DAV:   4    -0.923666153803E+03    0.43371E-05   -0.73854E-05  4320   0.141E-02    0.327E-02
DAV:   5    -0.923666157103E+03   -0.32996E-05   -0.50905E-05  3840   0.111E-02    0.228E-02
DAV:   6    -0.923666154006E+03    0.30964E-05   -0.23422E-05  4080   0.777E-03    0.851E-03
DAV:   7    -0.923666154338E+03   -0.33180E-06   -0.77559E-06  4176   0.398E-03
 129 F= -.92366615E+03 E0= -.92366615E+03  d E =-.273978E-03  mag=    32.0000
 curvature:  -4.34 expect dE=-0.195E-02 dE for cont linesearch -0.928E-05
 ZBRENT: increasing intervall
 opt :   1.3021  next Energy=  -923.666117 (dE=-0.236E-03)
 bond charge predicted
       N       E                     dE             d eps       ncg     rms          rms(c)
DAV:   1    -0.923664966417E+03    0.11876E-02   -0.57952E-01  2688   0.882E-01    0.171E-01
DAV:   2    -0.923666199871E+03   -0.12335E-02   -0.13177E-02  3408   0.161E-01    0.158E-01
DAV:   3    -0.923666143373E+03    0.56498E-04   -0.10964E-03  4416   0.562E-02    0.928E-02
DAV:   4    -0.923666122032E+03    0.21341E-04   -0.29364E-04  4320   0.284E-02    0.658E-02
DAV:   5    -0.923666126005E+03   -0.39732E-05   -0.20165E-04  3792   0.224E-02    0.448E-02
DAV:   6    -0.923666114226E+03    0.11780E-04   -0.94179E-05  4176   0.156E-02    0.172E-02
DAV:   7    -0.923666115349E+03   -0.11237E-05   -0.32835E-05  4560   0.804E-03    0.115E-02
DAV:   8    -0.923666114969E+03    0.38034E-06   -0.58205E-06  3792   0.458E-03
 130 F= -.92366611E+03 E0= -.92366611E+03  d E =-.234609E-03  mag=    32.0000
 curvature:  17.54 expect dE= 0.271E-01 dE for cont linesearch  0.203E-03
 ZBRENT: bracketing found
 ZBRENT: interpolating
 opt :   0.8999  next Energy=  -923.666165 (dE=-0.284E-03)
 bond charge predicted
       N       E                     dE             d eps       ncg     rms          rms(c)
DAV:   1    -0.923665615184E+03    0.50017E-03   -0.28304E-01  2688   0.616E-01    0.119E-01
DAV:   2    -0.923666209698E+03   -0.59451E-03   -0.63945E-03  3408   0.113E-01    0.110E-01
DAV:   3    -0.923666178592E+03    0.31106E-04   -0.53078E-04  4464   0.392E-02    0.645E-02
DAV:   4    -0.923666169569E+03    0.90233E-05   -0.13744E-04  4320   0.192E-02    0.457E-02
DAV:   5    -0.923666172726E+03   -0.31568E-05   -0.96468E-05  3792   0.154E-02    0.304E-02
DAV:   6    -0.923666167409E+03    0.53172E-05   -0.44015E-05  4128   0.107E-02    0.121E-02
DAV:   7    -0.923666167845E+03   -0.43675E-06   -0.13918E-05  4512   0.546E-03    0.790E-03
DAV:   8    -0.923666167539E+03    0.30587E-06   -0.25272E-06  3072   0.319E-03
 131 F= -.92366617E+03 E0= -.92366617E+03  d E =-.287179E-03  mag=    32.0000
 curvature:  -0.91 expect dE=-0.588E-03 dE for cont linesearch -0.506E-07
 trial: gam= 1.09159 g(F)=  0.646E-03 g(S)=  0.000E+00 ort = 0.196E-04 (trialstep = 0.411E+00)
 search vector abs. value=  0.888E-02
 bond charge predicted
       N       E                     dE             d eps       ncg     rms          rms(c)
DAV:   1    -0.923665599077E+03    0.56877E-03   -0.38604E-01  2688   0.716E-01    0.134E-01
DAV:   2    -0.923666386190E+03   -0.78711E-03   -0.85007E-03  3264   0.127E-01    0.120E-01
DAV:   3    -0.923666375038E+03    0.11152E-04   -0.68867E-04  4464   0.425E-02    0.727E-02
DAV:   4    -0.923666369472E+03    0.55653E-05   -0.18736E-04  4416   0.212E-02    0.582E-02
DAV:   5    -0.923666360066E+03    0.94060E-05   -0.11031E-04  3936   0.164E-02    0.273E-02
DAV:   6    -0.923666360320E+03   -0.25328E-06   -0.52694E-05  4224   0.115E-02    0.176E-02
DAV:   7    -0.923666358586E+03    0.17334E-05   -0.16049E-05  4512   0.601E-03    0.806E-03
DAV:   8    -0.923666358511E+03    0.75248E-07   -0.36258E-06  3408   0.345E-03
 132 F= -.92366636E+03 E0= -.92366636E+03  d E =-.190971E-03  mag=    32.0000
 trial-energy change:   -0.000191  1 .order   -0.000190   -0.000275   -0.000105
 step:   0.6658(harm=  0.6658)  dis= 0.00403  next Energy=  -923.666390 (dE=-0.222E-03)
 bond charge predicted
       N       E                     dE             d eps       ncg     rms          rms(c)
DAV:   1    -0.923666101474E+03    0.25711E-03   -0.14794E-01  2688   0.443E-01    0.835E-02
DAV:   2    -0.923666403793E+03   -0.30232E-03   -0.32847E-03  3264   0.792E-02    0.745E-02
DAV:   3    -0.923666400656E+03    0.31369E-05   -0.27160E-04  4416   0.268E-02    0.452E-02
DAV:   4    -0.923666399266E+03    0.13904E-05   -0.74350E-05  4368   0.135E-02    0.358E-02
DAV:   5    -0.923666397933E+03    0.13324E-05   -0.43431E-05  3984   0.102E-02    0.179E-02
DAV:   6    -0.923666397851E+03    0.82626E-07   -0.21434E-05  4176   0.725E-03    0.109E-02
DAV:   7    -0.923666397448E+03    0.40226E-06   -0.64901E-06  4128   0.384E-03
 133 F= -.92366640E+03 E0= -.92366640E+03  d E =-.229909E-03  mag=    32.0000
 curvature:  -4.43 expect dE=-0.229E-02 dE for cont linesearch -0.437E-06
 trial: gam= 0.75712 g(F)=  0.517E-03 g(S)=  0.000E+00 ort = 0.296E-04 (trialstep = 0.462E+00)
 search vector abs. value=  0.565E-02
 bond charge predicted
       N       E                     dE             d eps       ncg     rms          rms(c)
DAV:   1    -0.923665965147E+03    0.43270E-03   -0.31070E-01  2688   0.639E-01    0.125E-01
DAV:   2    -0.923666609212E+03   -0.64407E-03   -0.68781E-03  3312   0.113E-01    0.109E-01
DAV:   3    -0.923666598733E+03    0.10479E-04   -0.52823E-04  4272   0.384E-02    0.704E-02
DAV:   4    -0.923666590679E+03    0.80540E-05   -0.14643E-04  4224   0.201E-02    0.517E-02
DAV:   5    -0.923666586303E+03    0.43761E-05   -0.95682E-05  3888   0.150E-02    0.229E-02
DAV:   6    -0.923666586955E+03   -0.65211E-06   -0.47046E-05  4128   0.109E-02    0.172E-02
DAV:   7    -0.923666585125E+03    0.18303E-05   -0.13567E-05  4656   0.547E-03    0.746E-03
DAV:   8    -0.923666585323E+03   -0.19884E-06   -0.29701E-06  3312   0.311E-03
 134 F= -.92366659E+03 E0= -.92366659E+03  d E =-.187875E-03  mag=    32.0000
 trial-energy change:   -0.000188  1 .order   -0.000185   -0.000249   -0.000120
 step:   0.8918(harm=  0.8918)  dis= 0.00448  next Energy=  -923.666638 (dE=-0.241E-03)
 bond charge predicted
       N       E                     dE             d eps       ncg     rms          rms(c)
DAV:   1    -0.923666110277E+03    0.47485E-03   -0.26859E-01  2688   0.594E-01    0.117E-01
DAV:   2    -0.923666665646E+03   -0.55537E-03   -0.59565E-03  3312   0.105E-01    0.101E-01
DAV:   3    -0.923666657571E+03    0.80756E-05   -0.46035E-04  4368   0.357E-02    0.663E-02
DAV:   4    -0.923666649742E+03    0.78291E-05   -0.13316E-04  4464   0.186E-02    0.486E-02
DAV:   5    -0.923666646178E+03    0.35638E-05   -0.83853E-05  3840   0.141E-02    0.217E-02
DAV:   6    -0.923666646468E+03   -0.29021E-06   -0.42077E-05  4176   0.103E-02    0.167E-02
DAV:   7    -0.923666644472E+03    0.19960E-05   -0.11036E-05  4560   0.516E-03    0.695E-03
DAV:   8    -0.923666644639E+03   -0.16706E-06   -0.27134E-06  3264   0.294E-03
 135 F= -.92366664E+03 E0= -.92366664E+03  d E =-.247191E-03  mag=    32.0000
 curvature:  -4.67 expect dE=-0.310E-02 dE for cont linesearch -0.481E-07
 trial: gam= 1.32819 g(F)=  0.664E-03 g(S)=  0.000E+00 ort = 0.763E-05 (trialstep = 0.291E+00)
 search vector abs. value=  0.107E-01
 bond charge predicted
       N       E                     dE             d eps       ncg     rms          rms(c)
DAV:   1    -0.923666367365E+03    0.27711E-03   -0.22860E-01  2688   0.546E-01    0.109E-01
DAV:   2    -0.923666851586E+03   -0.48422E-03   -0.52703E-03  3312   0.985E-02    0.984E-02
DAV:   3    -0.923666818820E+03    0.32765E-04   -0.52521E-04  4416   0.366E-02    0.566E-02
DAV:   4    -0.923666807219E+03    0.11602E-04   -0.11411E-04  4224   0.167E-02    0.349E-02
DAV:   5    -0.923666813119E+03   -0.59008E-05   -0.68299E-05  3792   0.127E-02    0.261E-02
DAV:   6    -0.923666809016E+03    0.41032E-05   -0.33292E-05  4464   0.921E-03    0.106E-02
DAV:   7    -0.923666809461E+03   -0.44503E-06   -0.10152E-05  4224   0.457E-03    0.748E-03
DAV:   8    -0.923666809230E+03    0.23168E-06   -0.26448E-06  2976   0.265E-03
 136 F= -.92366681E+03 E0= -.92366681E+03  d E =-.164590E-03  mag=    32.0000
 trial-energy change:   -0.000165  1 .order   -0.000160   -0.000196   -0.000123
 step:   0.5627(harm=  0.7828)  dis= 0.00434  next Energy=  -923.666871 (dE=-0.226E-03)
 bond charge predicted
       N       E                     dE             d eps       ncg     rms          rms(c)
DAV:   1    -0.923666511243E+03    0.29822E-03   -0.19989E-01  2688   0.510E-01    0.102E-01
DAV:   2    -0.923666933135E+03   -0.42189E-03   -0.46081E-03  3312   0.921E-02    0.925E-02
DAV:   3    -0.923666905218E+03    0.27918E-04   -0.46520E-04  4464   0.342E-02    0.533E-02
DAV:   4    -0.923666894287E+03    0.10931E-04   -0.10279E-04  4224   0.156E-02    0.328E-02
DAV:   5    -0.923666899447E+03   -0.51596E-05   -0.60451E-05  3792   0.119E-02    0.247E-02
DAV:   6    -0.923666895798E+03    0.36486E-05   -0.30342E-05  4656   0.866E-03    0.998E-03
DAV:   7    -0.923666896099E+03   -0.30054E-06   -0.79845E-06  4032   0.423E-03
 137 F= -.92366690E+03 E0= -.92366690E+03  d E =-.251460E-03  mag=    32.0000
 curvature:  -4.95 expect dE=-0.170E-02 dE for cont linesearch -0.196E-04
 ZBRENT: increasing intervall
 opt :   1.1065  next Energy=  -923.666889 (dE=-0.244E-03)
 bond charge predicted
       N       E                     dE             d eps       ncg     rms          rms(c)
DAV:   1    -0.923665345173E+03    0.15506E-02   -0.79933E-01  2688   0.102E+00    0.204E-01
DAV:   2    -0.923667048482E+03   -0.17033E-02   -0.18436E-02  3264   0.184E-01    0.186E-01
DAV:   3    -0.923666933402E+03    0.11508E-03   -0.18935E-03  4416   0.692E-02    0.107E-01
DAV:   4    -0.923666883734E+03    0.49668E-04   -0.40602E-04  4224   0.314E-02    0.657E-02
DAV:   5    -0.923666895115E+03   -0.11381E-04   -0.24495E-04  3888   0.240E-02    0.491E-02
DAV:   6    -0.923666880060E+03    0.15055E-04   -0.12355E-04  4704   0.173E-02    0.204E-02
DAV:   7    -0.923666880526E+03   -0.46630E-06   -0.32114E-05  4320   0.852E-03    0.139E-02
DAV:   8    -0.923666879791E+03    0.73497E-06   -0.10757E-05  4176   0.478E-03    0.744E-03
DAV:   9    -0.923666880444E+03   -0.65309E-06   -0.29696E-06  3600   0.273E-03
 138 F= -.92366688E+03 E0= -.92366688E+03  d E =-.235805E-03  mag=    32.0000
 curvature:   1.79 expect dE= 0.215E-02 dE for cont linesearch  0.108E-04
 ZBRENT: bracketing found
 ZBRENT: interpolating
 opt :   0.8058  next Energy=  -923.666921 (dE=-0.276E-03)
 bond charge predicted
       N       E                     dE             d eps       ncg     rms          rms(c)
DAV:   1    -0.923666452375E+03    0.42742E-03   -0.24422E-01  2688   0.563E-01    0.112E-01
DAV:   2    -0.923666966496E+03   -0.51412E-03   -0.55970E-03  3312   0.101E-01    0.102E-01
DAV:   3    -0.923666930641E+03    0.35855E-04   -0.55384E-04  4320   0.376E-02    0.581E-02
DAV:   4    -0.923666919229E+03    0.11412E-04   -0.12261E-04  4224   0.172E-02    0.365E-02
DAV:   5    -0.923666924331E+03   -0.51021E-05   -0.73370E-05  3984   0.131E-02    0.265E-02
DAV:   6    -0.923666920274E+03    0.40577E-05   -0.35166E-05  4608   0.939E-03    0.110E-02
DAV:   7    -0.923666920658E+03   -0.38440E-06   -0.95435E-06  4176   0.452E-03
 139 F= -.92366692E+03 E0= -.92366692E+03  d E =-.276019E-03  mag=    32.0000
 curvature:  -4.13 expect dE=-0.239E-02 dE for cont linesearch -0.903E-09
 trial: gam= 0.87521 g(F)=  0.578E-03 g(S)=  0.000E+00 ort =-0.153E-05 (trialstep = 0.394E+00)
 search vector abs. value=  0.874E-02
 bond charge predicted
       N       E                     dE             d eps       ncg     rms          rms(c)
DAV:   1    -0.923666405692E+03    0.51458E-03   -0.34454E-01  2688   0.675E-01    0.131E-01
DAV:   2    -0.923667115951E+03   -0.71026E-03   -0.77873E-03  3264   0.123E-01    0.114E-01
DAV:   3    -0.923667102438E+03    0.13514E-04   -0.74471E-04  4560   0.431E-02    0.710E-02
DAV:   4    -0.923667085634E+03    0.16803E-04   -0.19377E-04  4416   0.204E-02    0.479E-02
DAV:   5    -0.923667087144E+03   -0.15093E-05   -0.10471E-04  4032   0.153E-02    0.294E-02
DAV:   6    -0.923667083673E+03    0.34709E-05   -0.46108E-05  4512   0.109E-02    0.137E-02
DAV:   7    -0.923667083621E+03    0.52009E-07   -0.14304E-05  4416   0.535E-03    0.773E-03
DAV:   8    -0.923667083659E+03   -0.38373E-07   -0.34007E-06  3312   0.317E-03
 140 F= -.92366708E+03 E0= -.92366708E+03  d E =-.163001E-03  mag=    32.0000
 trial-energy change:   -0.000163  1 .order   -0.000161   -0.000227   -0.000095
 step:   0.6790(harm=  0.6790)  dis= 0.00492  next Energy=  -923.667116 (dE=-0.196E-03)
 bond charge predicted
       N       E                     dE             d eps       ncg     rms          rms(c)
DAV:   1    -0.923666759628E+03    0.32399E-03   -0.18087E-01  2688   0.489E-01    0.959E-02
DAV:   2    -0.923667133994E+03   -0.37437E-03   -0.41282E-03  3264   0.898E-02    0.827E-02
DAV:   3    -0.923667130097E+03    0.38974E-05   -0.40981E-04  4656   0.315E-02    0.521E-02
DAV:   4    -0.923667121061E+03    0.90357E-05   -0.10430E-04  4320   0.150E-02    0.348E-02
DAV:   5    -0.923667123885E+03   -0.28240E-05   -0.57998E-05  4368   0.112E-02    0.217E-02
DAV:   6    -0.923667122187E+03    0.16978E-05   -0.24806E-05  4320   0.816E-03    0.101E-02
DAV:   7    -0.923667122346E+03   -0.15867E-06   -0.85997E-06  4224   0.394E-03
 141 F= -.92366712E+03 E0= -.92366712E+03  d E =-.201688E-03  mag=    32.0000
 curvature:  -5.15 expect dE=-0.261E-02 dE for cont linesearch -0.276E-06
 trial: gam= 0.81292 g(F)=  0.507E-03 g(S)=  0.000E+00 ort = 0.217E-04 (trialstep = 0.451E+00)
 search vector abs. value=  0.632E-02
 bond charge predicted
       N       E                     dE             d eps       ncg     rms          rms(c)
DAV:   1    -0.923666588002E+03    0.53419E-03   -0.32917E-01  2688   0.674E-01    0.129E-01
DAV:   2    -0.923667284810E+03   -0.69681E-03   -0.75273E-03  3312   0.126E-01    0.106E-01
DAV:   3    -0.923667293715E+03   -0.89055E-05   -0.60712E-04  4416   0.414E-02    0.699E-02
DAV:   4    -0.923667295650E+03   -0.19345E-05   -0.18062E-04  4608   0.210E-02    0.507E-02
DAV:   5    -0.923667290336E+03    0.53135E-05   -0.98610E-05  4464   0.161E-02    0.269E-02
DAV:   6    -0.923667290626E+03   -0.28968E-06   -0.39897E-05  4032   0.108E-02    0.164E-02
DAV:   7    -0.923667289187E+03    0.14388E-05   -0.15340E-05  4464   0.596E-03    0.770E-03
DAV:   8    -0.923667289497E+03   -0.30978E-06   -0.34039E-06  3312   0.304E-03
 142 F= -.92366729E+03 E0= -.92366729E+03  d E =-.167151E-03  mag=    32.0000
 trial-energy change:   -0.000167  1 .order   -0.000166   -0.000236   -0.000095
 step:   0.7544(harm=  0.7544)  dis= 0.00477  next Energy=  -923.667320 (dE=-0.198E-03)
 reached required accuracy - stopping structural energy minimisation
