<?xml version="1.0" encoding="ISO-8859-1"?>
<modeling>
 <generator>
  <i name="program" type="string">vasp </i>
  <i name="version" type="string">6.4.3  </i>
  <i name="subversion" type="string">19Mar24 (build Mar 01 2025 18:03:59) gamma-only                       parallel </i>
  <i name="platform" type="string">Shaheen </i>
  <i name="date" type="string">2025 04 30 </i>
  <i name="time" type="string">22:01:11 </i>
 </generator>
 <incar>
  <i type="int" name="ISTART">     1</i>
  <i type="string" name="PREC">Accurate   (Precision level: Normal or Accurate, set Accurate when perform structure lattice relaxation calculation)</i>
  <i type="logical" name="ADDGRID"> T  </i>
  <i type="int" name="ISPIN">     2</i>
  <i type="int" name="NELM">    90</i>
  <i type="int" name="NELMIN">     6</i>
  <i type="int" name="IBRION">     2</i>
  <i name="EDIFF">      0.00000100</i>
  <i name="EDIFFG">     -0.02000000</i>
  <i type="int" name="NSW">   300</i>
  <i type="int" name="ISIF">     2</i>
  <i name="ENCUT">    520.00000000</i>
  <v name="MAGMOM">      1.00000000      1.00000000      1.00000000      1.00000000      1.00000000      1.00000000      1.00000000      1.00000000      1.00000000      1.00000000      1.00000000      1.00000000      1.00000000      1.00000000      1.00000000      1.00000000      1.00000000      1.00000000      1.00000000      1.00000000
      1.00000000      1.00000000      1.00000000      1.00000000      1.00000000      1.00000000      1.00000000      1.00000000      1.00000000      1.00000000      1.00000000      1.00000000      0.60000000      0.60000000      0.60000000      0.60000000      0.60000000      0.60000000      0.60000000      0.60000000
      0.60000000      0.60000000      0.60000000      0.60000000      0.60000000      0.60000000      0.60000000      0.60000000      0.60000000      0.60000000      0.60000000      0.60000000      0.60000000      0.60000000      0.60000000      0.60000000      0.60000000      0.60000000      0.60000000      0.60000000
      0.60000000      0.60000000      0.60000000      0.60000000      0.60000000      0.60000000      0.60000000      0.60000000      0.60000000      0.60000000      0.60000000      0.60000000      0.60000000      0.60000000      0.60000000      0.60000000      0.60000000      0.60000000      0.60000000      0.60000000
      0.60000000      0.60000000      0.60000000      0.60000000      0.60000000      0.60000000      0.60000000      0.60000000      0.60000000      0.60000000      0.60000000      0.60000000      0.60000000      0.60000000      0.60000000      0.60000000      0.60000000      0.60000000      0.60000000      0.60000000
      0.60000000      0.60000000      0.60000000      0.60000000      0.60000000      0.60000000      0.60000000      0.60000000      0.60000000      0.60000000      0.60000000      0.60000000      0.60000000      0.60000000      0.60000000      0.60000000      0.60000000      0.60000000      0.60000000      0.60000000
      0.60000000      0.60000000      0.60000000      0.60000000      0.60000000      0.60000000      0.60000000      0.60000000      0.60000000      0.60000000      0.60000000      0.60000000      0.60000000      0.60000000</v>
  <i type="logical" name="LREAL"> F  </i>
  <i type="int" name="ISMEAR">     0</i>
  <i name="SIGMA">      0.05000000</i>
  <i type="int" name="LMAXMIX">     6</i>
  <i type="logical" name="LWAVE"> F  </i>
  <i type="logical" name="LCHARG"> F  </i>
  <i type="logical" name="LASPH"> T  </i>
  <i type="logical" name="LDAU"> T  </i>
  <i type="int" name="LDAUTYPE">     2</i>
  <v type="int" name="LDAUL">     3    -1     2</v>
  <v name="LDAUU">      5.00000000      0.00000000      2.00000000</v>
  <v name="LDAUJ">      0.00000000      0.00000000      0.00000000</v>
 </incar>
 <primitive_cell>
  <structure name="primitive_cell" >
   <crystal>
    <varray name="basis" >
     <v>      15.46430016       0.00000000       0.00000000 </v>
     <v>      -7.73215008      13.39247679       0.00000000 </v>
     <v>       0.00000000       0.00000000      21.04820061 </v>
    </varray>
    <i name="volume">   4359.19349823 </i>
    <varray name="rec_basis" >
     <v>       0.06466507       0.03733439       0.00000000 </v>
     <v>       0.00000000       0.07466879       0.00000000 </v>
     <v>       0.00000000       0.00000000       0.04751000 </v>
    </varray>
   </crystal>
   <varray name="positions" >
    <v>       0.00000000       0.00000000       0.45993000 </v>
    <v>       0.16667000       0.08333000       0.30996000 </v>
    <v>       0.25000000       0.00000000       0.45993000 </v>
    <v>       0.41667000       0.08333000       0.30996000 </v>
    <v>       0.50000000       0.00000000       0.45993000 </v>
    <v>       0.66667000       0.08333000       0.30996000 </v>
    <v>       0.75000000       0.00000000       0.45993000 </v>
    <v>       0.91667000       0.08333000       0.30996000 </v>
    <v>       0.00000000       0.25000000       0.45993000 </v>
    <v>       0.16667000       0.33333000       0.30996000 </v>
    <v>       0.25000000       0.25000000       0.45993000 </v>
    <v>       0.41667000       0.33333000       0.30996000 </v>
    <v>       0.50000000       0.25000000       0.45993000 </v>
    <v>       0.66667000       0.33333000       0.30996000 </v>
    <v>       0.75000000       0.25000000       0.45993000 </v>
    <v>       0.91667000       0.33333000       0.30996000 </v>
    <v>       0.00000000       0.50000000       0.45993000 </v>
    <v>       0.16667000       0.58333000       0.30996000 </v>
    <v>       0.25000000       0.50000000       0.45993000 </v>
    <v>       0.41667000       0.58333000       0.30996000 </v>
    <v>       0.50000000       0.50000000       0.45993000 </v>
    <v>       0.66667000       0.58333000       0.30996000 </v>
    <v>       0.75000000       0.50000000       0.45993000 </v>
    <v>       0.91667000       0.58333000       0.30996000 </v>
    <v>       0.00000000       0.75000000       0.45993000 </v>
    <v>       0.16667000       0.83333000       0.30996000 </v>
    <v>       0.25000000       0.75000000       0.45993000 </v>
    <v>       0.41667000       0.83333000       0.30996000 </v>
    <v>       0.50000000       0.75000000       0.45993000 </v>
    <v>       0.66667000       0.83333000       0.30996000 </v>
    <v>       0.75000000       0.75000000       0.45993000 </v>
    <v>       0.91667000       0.83333000       0.30996000 </v>
    <v>       0.08333000       0.16667000       0.27247000 </v>
    <v>       0.16667000       0.08333000       0.42244000 </v>
    <v>       0.08333000       0.16667000       0.49742000 </v>
    <v>       0.00000000       0.00000000       0.34745000 </v>
    <v>       0.16667000       0.08333000       0.19748000 </v>
    <v>       0.20842000       0.04158000       0.58116000 </v>
    <v>       0.33333000       0.16667000       0.27247000 </v>
    <v>       0.41667000       0.08333000       0.42244000 </v>
    <v>       0.33333000       0.16667000       0.49742000 </v>
    <v>       0.25000000       0.00000000       0.34745000 </v>
    <v>       0.41667000       0.08333000       0.19748000 </v>
    <v>       0.58333000       0.16667000       0.27247000 </v>
    <v>       0.66667000       0.08333000       0.42244000 </v>
    <v>       0.58333000       0.16667000       0.49742000 </v>
    <v>       0.50000000       0.00000000       0.34745000 </v>
    <v>       0.66667000       0.08333000       0.19748000 </v>
    <v>       0.70872000       0.04128000       0.58444000 </v>
    <v>       0.83333000       0.16667000       0.27247000 </v>
    <v>       0.91667000       0.08333000       0.42244000 </v>
    <v>       0.83333000       0.16667000       0.49742000 </v>
    <v>       0.75000000       0.00000000       0.34745000 </v>
    <v>       0.91667000       0.08333000       0.19748000 </v>
    <v>       0.08333000       0.41667000       0.27247000 </v>
    <v>       0.16667000       0.33333000       0.42244000 </v>
    <v>       0.08333000       0.41667000       0.49742000 </v>
    <v>       0.00000000       0.25000000       0.34745000 </v>
    <v>       0.16667000       0.33333000       0.19748000 </v>
    <v>       0.33333000       0.41667000       0.27247000 </v>
    <v>       0.41667000       0.33333000       0.42244000 </v>
    <v>       0.33333000       0.41667000       0.49742000 </v>
    <v>       0.25000000       0.25000000       0.34745000 </v>
    <v>       0.41667000       0.33333000       0.19748000 </v>
    <v>       0.45842000       0.29158000       0.58116000 </v>
    <v>       0.58333000       0.41667000       0.27247000 </v>
    <v>       0.66667000       0.33333000       0.42244000 </v>
    <v>       0.58333000       0.41667000       0.49742000 </v>
    <v>       0.50000000       0.25000000       0.34745000 </v>
    <v>       0.66667000       0.33333000       0.19748000 </v>
    <v>       0.83333000       0.41667000       0.27247000 </v>
    <v>       0.91667000       0.33333000       0.42244000 </v>
    <v>       0.83333000       0.41667000       0.49742000 </v>
    <v>       0.75000000       0.25000000       0.34745000 </v>
    <v>       0.91667000       0.33333000       0.19748000 </v>
    <v>       0.08333000       0.66667000       0.27247000 </v>
    <v>       0.16667000       0.58333000       0.42244000 </v>
    <v>       0.08333000       0.66667000       0.49742000 </v>
    <v>       0.00000000       0.50000000       0.34745000 </v>
    <v>       0.16667000       0.58333000       0.19748000 </v>
    <v>       0.20872000       0.54128000       0.58444000 </v>
    <v>       0.33333000       0.66667000       0.27247000 </v>
    <v>       0.41667000       0.58333000       0.42244000 </v>
    <v>       0.33333000       0.66667000       0.49742000 </v>
    <v>       0.25000000       0.50000000       0.34745000 </v>
    <v>       0.41667000       0.58333000       0.19748000 </v>
    <v>       0.58333000       0.66667000       0.27247000 </v>
    <v>       0.66667000       0.58333000       0.42244000 </v>
    <v>       0.58333000       0.66667000       0.49742000 </v>
    <v>       0.50000000       0.50000000       0.34745000 </v>
    <v>       0.66667000       0.58333000       0.19748000 </v>
    <v>       0.70842000       0.54158000       0.58116000 </v>
    <v>       0.83333000       0.66667000       0.27247000 </v>
    <v>       0.91667000       0.58333000       0.42244000 </v>
    <v>       0.83333000       0.66667000       0.49742000 </v>
    <v>       0.75000000       0.50000000       0.34745000 </v>
    <v>       0.91667000       0.58333000       0.19748000 </v>
    <v>       0.08333000       0.91667000       0.27247000 </v>
    <v>       0.16667000       0.83333000       0.42244000 </v>
    <v>       0.08333000       0.91667000       0.49742000 </v>
    <v>       0.00000000       0.75000000       0.34745000 </v>
    <v>       0.16667000       0.83333000       0.19748000 </v>
    <v>       0.33333000       0.91667000       0.27247000 </v>
    <v>       0.41667000       0.83333000       0.42244000 </v>
    <v>       0.33333000       0.91667000       0.49742000 </v>
    <v>       0.25000000       0.75000000       0.34745000 </v>
    <v>       0.41667000       0.83333000       0.19748000 </v>
    <v>       0.45872000       0.79128000       0.58444000 </v>
    <v>       0.58333000       0.91667000       0.27247000 </v>
    <v>       0.66667000       0.83333000       0.42244000 </v>
    <v>       0.58333000       0.91667000       0.49742000 </v>
    <v>       0.50000000       0.75000000       0.34745000 </v>
    <v>       0.66667000       0.83333000       0.19748000 </v>
    <v>       0.83333000       0.91667000       0.27247000 </v>
    <v>       0.91667000       0.83333000       0.42244000 </v>
    <v>       0.83333000       0.91667000       0.49742000 </v>
    <v>       0.75000000       0.75000000       0.34745000 </v>
    <v>       0.91667000       0.83333000       0.19748000 </v>
    <v>       0.51426000       0.49220000       0.58386000 </v>
    <v>       0.26652000       0.73994000       0.59099000 </v>
    <v>       0.51652000       0.98994000       0.59099000 </v>
    <v>       0.58851000       0.41951000       0.67258000 </v>
    <v>       0.33754000       0.67048000       0.67250000 </v>
    <v>       0.58754000       0.92048000       0.67250000 </v>
    <v>       0.65929000       0.34869000       0.58011000 </v>
    <v>       0.40939000       0.59859000       0.58424000 </v>
    <v>       0.65939000       0.84859000       0.58424000 </v>
    <v>       0.26112000       0.24167000       0.58188000 </v>
    <v>       0.33537000       0.16898000       0.67060000 </v>
    <v>       0.40614000       0.09816000       0.57813000 </v>
    <v>       0.58502000       0.91424000       0.58749000 </v>
    <v>       0.34137000       0.67329000       0.58504000 </v>
    <v>       0.59736000       0.42997000       0.58157000 </v>
    <v>       0.34421000       0.17945000       0.57959000 </v>
   </varray>
  </structure>
  <varray name="primitive_index" >
   <v type="int" >        1 </v>
   <v type="int" >        2 </v>
   <v type="int" >        3 </v>
   <v type="int" >        4 </v>
   <v type="int" >        5 </v>
   <v type="int" >        6 </v>
   <v type="int" >        7 </v>
   <v type="int" >        8 </v>
   <v type="int" >        9 </v>
   <v type="int" >       10 </v>
   <v type="int" >       11 </v>
   <v type="int" >       12 </v>
   <v type="int" >       13 </v>
   <v type="int" >       14 </v>
   <v type="int" >       15 </v>
   <v type="int" >       16 </v>
   <v type="int" >       17 </v>
   <v type="int" >       18 </v>
   <v type="int" >       19 </v>
   <v type="int" >       20 </v>
   <v type="int" >       21 </v>
   <v type="int" >       22 </v>
   <v type="int" >       23 </v>
   <v type="int" >       24 </v>
   <v type="int" >       25 </v>
   <v type="int" >       26 </v>
   <v type="int" >       27 </v>
   <v type="int" >       28 </v>
   <v type="int" >       29 </v>
   <v type="int" >       30 </v>
   <v type="int" >       31 </v>
   <v type="int" >       32 </v>
   <v type="int" >       33 </v>
   <v type="int" >       34 </v>
   <v type="int" >       35 </v>
   <v type="int" >       36 </v>
   <v type="int" >       37 </v>
   <v type="int" >       38 </v>
   <v type="int" >       39 </v>
   <v type="int" >       40 </v>
   <v type="int" >       41 </v>
   <v type="int" >       42 </v>
   <v type="int" >       43 </v>
   <v type="int" >       44 </v>
   <v type="int" >       45 </v>
   <v type="int" >       46 </v>
   <v type="int" >       47 </v>
   <v type="int" >       48 </v>
   <v type="int" >       49 </v>
   <v type="int" >       50 </v>
   <v type="int" >       51 </v>
   <v type="int" >       52 </v>
   <v type="int" >       53 </v>
   <v type="int" >       54 </v>
   <v type="int" >       55 </v>
   <v type="int" >       56 </v>
   <v type="int" >       57 </v>
   <v type="int" >       58 </v>
   <v type="int" >       59 </v>
   <v type="int" >       60 </v>
   <v type="int" >       61 </v>
   <v type="int" >       62 </v>
   <v type="int" >       63 </v>
   <v type="int" >       64 </v>
   <v type="int" >       65 </v>
   <v type="int" >       66 </v>
   <v type="int" >       67 </v>
   <v type="int" >       68 </v>
   <v type="int" >       69 </v>
   <v type="int" >       70 </v>
   <v type="int" >       71 </v>
   <v type="int" >       72 </v>
   <v type="int" >       73 </v>
   <v type="int" >       74 </v>
   <v type="int" >       75 </v>
   <v type="int" >       76 </v>
   <v type="int" >       77 </v>
   <v type="int" >       78 </v>
   <v type="int" >       79 </v>
   <v type="int" >       80 </v>
   <v type="int" >       81 </v>
   <v type="int" >       82 </v>
   <v type="int" >       83 </v>
   <v type="int" >       84 </v>
   <v type="int" >       85 </v>
   <v type="int" >       86 </v>
   <v type="int" >       87 </v>
   <v type="int" >       88 </v>
   <v type="int" >       89 </v>
   <v type="int" >       90 </v>
   <v type="int" >       91 </v>
   <v type="int" >       92 </v>
   <v type="int" >       93 </v>
   <v type="int" >       94 </v>
   <v type="int" >       95 </v>
   <v type="int" >       96 </v>
   <v type="int" >       97 </v>
   <v type="int" >       98 </v>
   <v type="int" >       99 </v>
   <v type="int" >      100 </v>
   <v type="int" >      101 </v>
   <v type="int" >      102 </v>
   <v type="int" >      103 </v>
   <v type="int" >      104 </v>
   <v type="int" >      105 </v>
   <v type="int" >      106 </v>
   <v type="int" >      107 </v>
   <v type="int" >      108 </v>
   <v type="int" >      109 </v>
   <v type="int" >      110 </v>
   <v type="int" >      111 </v>
   <v type="int" >      112 </v>
   <v type="int" >      113 </v>
   <v type="int" >      114 </v>
   <v type="int" >      115 </v>
   <v type="int" >      116 </v>
   <v type="int" >      117 </v>
   <v type="int" >      118 </v>
   <v type="int" >      119 </v>
   <v type="int" >      120 </v>
   <v type="int" >      121 </v>
   <v type="int" >      122 </v>
   <v type="int" >      123 </v>
   <v type="int" >      124 </v>
   <v type="int" >      125 </v>
   <v type="int" >      126 </v>
   <v type="int" >      127 </v>
   <v type="int" >      128 </v>
   <v type="int" >      129 </v>
   <v type="int" >      130 </v>
   <v type="int" >      131 </v>
   <v type="int" >      132 </v>
   <v type="int" >      133 </v>
   <v type="int" >      134 </v>
  </varray>
 </primitive_cell>
 <kpoints>
  <generation param="Gamma">
   <v type="int" name="divisions">       1        1        1 </v>
   <v name="usershift">      0.00000000       0.00000000       0.00000000 </v>
   <v name="genvec1">      1.00000000       0.00000000       0.00000000 </v>
   <v name="genvec2">      0.00000000       1.00000000       0.00000000 </v>
   <v name="genvec3">      0.00000000       0.00000000       1.00000000 </v>
   <v name="shift">      0.00000000       0.00000000       0.00000000 </v>
  </generation>
  <varray name="kpointlist" >
   <v>       0.00000000       0.00000000       0.00000000 </v>
  </varray>
  <varray name="weights" >
   <v>       1.00000000 </v>
  </varray>
 </kpoints>
 <parameters>
  <separator name="general" >
   <i type="string" name="SYSTEM">unknown system</i>
   <i type="logical" name="LCOMPAT"> F  </i>
  </separator>
  <separator name="electronic" >
   <i type="string" name="PREC">accura</i>
   <i name="ENMAX">    520.00000000</i>
   <i name="ENAUG">    605.39200000</i>
   <i name="EDIFF">      0.00000100</i>
   <i type="int" name="IALGO">    38</i>
   <i type="int" name="IWAVPR">    11</i>
   <i type="int" name="NBANDS">   672</i>
   <i type="int" name="NBANDSLOW">    -1</i>
   <i type="int" name="NBANDSHIGH">    -1</i>
   <i name="NELECT">   1008.00000000</i>
   <i type="int" name="TURBO">     0</i>
   <i type="int" name="IRESTART">     0</i>
   <i type="int" name="NREBOOT">     0</i>
   <i type="int" name="NMIN">     0</i>
   <i name="EREF">      0.00000000</i>
   <separator name="electronic smearing" >
    <i type="int" name="ISMEAR">     0</i>
    <i name="SIGMA">      0.05000000</i>
    <i name="KSPACING">      0.50000000</i>
    <i type="logical" name="KGAMMA"> T  </i>
    <i type="logical" name="KBLOWUP"> T  </i>
   </separator>
   <separator name="electronic projectors" >
    <i type="logical" name="LREAL"> F  </i>
    <v name="ROPT">      0.00000000      0.00000000      0.00000000</v>
    <i type="int" name="LMAXPAW">  -100</i>
    <i type="int" name="LMAXMIX">     6</i>
    <i type="logical" name="NLSPLINE"> F  </i>
   </separator>
   <separator name="electronic startup" >
    <i type="int" name="ISTART">     0</i>
    <i type="int" name="ICHARG">     2</i>
    <i type="int" name="INIWAV">     1</i>
   </separator>
   <separator name="electronic spin" >
    <i type="int" name="ISPIN">     2</i>
    <i type="logical" name="LNONCOLLINEAR"> F  </i>
    <v name="MAGMOM">      1.00000000      1.00000000      1.00000000      1.00000000      1.00000000      1.00000000      1.00000000      1.00000000      1.00000000      1.00000000      1.00000000      1.00000000      1.00000000      1.00000000      1.00000000      1.00000000      1.00000000      1.00000000      1.00000000      1.00000000
      1.00000000      1.00000000      1.00000000      1.00000000      1.00000000      1.00000000      1.00000000      1.00000000      1.00000000      1.00000000      1.00000000      1.00000000      0.60000000      0.60000000      0.60000000      0.60000000      0.60000000      0.60000000      0.60000000      0.60000000
      0.60000000      0.60000000      0.60000000      0.60000000      0.60000000      0.60000000      0.60000000      0.60000000      0.60000000      0.60000000      0.60000000      0.60000000      0.60000000      0.60000000      0.60000000      0.60000000      0.60000000      0.60000000      0.60000000      0.60000000
      0.60000000      0.60000000      0.60000000      0.60000000      0.60000000      0.60000000      0.60000000      0.60000000      0.60000000      0.60000000      0.60000000      0.60000000      0.60000000      0.60000000      0.60000000      0.60000000      0.60000000      0.60000000      0.60000000      0.60000000
      0.60000000      0.60000000      0.60000000      0.60000000      0.60000000      0.60000000      0.60000000      0.60000000      0.60000000      0.60000000      0.60000000      0.60000000      0.60000000      0.60000000      0.60000000      0.60000000      0.60000000      0.60000000      0.60000000      0.60000000
      0.60000000      0.60000000      0.60000000      0.60000000      0.60000000      0.60000000      0.60000000      0.60000000      0.60000000      0.60000000      0.60000000      0.60000000      0.60000000      0.60000000      0.60000000      0.60000000      0.60000000      0.60000000      0.60000000      0.60000000
      0.60000000      0.60000000      0.60000000      0.60000000      0.60000000      0.60000000      0.60000000      0.60000000      0.60000000      0.60000000      0.60000000      0.60000000      0.60000000      0.60000000</v>
    <i name="NUPDOWN">     -1.00000000</i>
    <i type="logical" name="LSORBIT"> F  </i>
    <v name="SAXIS">      0.00000000      0.00000000      1.00000000</v>
    <i type="logical" name="LSPIRAL"> F  </i>
    <v name="QSPIRAL">      0.00000000      0.00000000      0.00000000</v>
    <i type="logical" name="LZEROZ"> F  </i>
   </separator>
   <separator name="electronic exchange-correlation" >
    <i type="logical" name="LASPH"> T  </i>
   </separator>
   <separator name="electronic convergence" >
    <i type="int" name="NELM">    90</i>
    <i type="int" name="NELMDL">     0</i>
    <i type="int" name="NELMIN">     6</i>
    <i name="ENINI">    520.00000000</i>
    <separator name="electronic convergence detail" >
     <i type="logical" name="LDIAG"> T  </i>
     <i type="logical" name="LSUBROT"> F  </i>
     <i name="WEIMIN">      0.00100000</i>
     <i name="EBREAK">      0.00000000</i>
     <i name="DEPER">      0.30000000</i>
     <i type="int" name="NRMM">     4</i>
     <i name="TIME">      0.40000000</i>
    </separator>
   </separator>
   <separator name="electronic mixer" >
    <i name="AMIX">      0.40000000</i>
    <i name="BMIX">      1.00000000</i>
    <i name="AMIN">      0.10000000</i>
    <i name="AMIX_MAG">      1.60000000</i>
    <i name="BMIX_MAG">      1.00000000</i>
    <separator name="electronic mixer details" >
     <i type="int" name="IMIX">     4</i>
     <i type="logical" name="MIXFIRST"> F  </i>
     <i type="int" name="MAXMIX">   -45</i>
     <i name="WC">    100.00000000</i>
     <i type="int" name="INIMIX">     1</i>
     <i type="int" name="MIXPRE">     1</i>
     <i type="int" name="MREMOVE">     5</i>
    </separator>
   </separator>
   <separator name="electronic dipolcorrection" >
    <i type="logical" name="LDIPOL"> F  </i>
    <i type="logical" name="LMONO"> F  </i>
    <i type="int" name="IDIPOL">     0</i>
    <i name="EPSILON">      1.00000000</i>
    <v name="DIPOL">   -100.00000000   -100.00000000   -100.00000000</v>
    <i name="EFIELD">      0.00000000</i>
    <i type="logical" name="LVACPOTAV"> F  </i>
   </separator>
  </separator>
  <separator name="grids" >
   <i type="int" name="NGX">   120</i>
   <i type="int" name="NGY">   120</i>
   <i type="int" name="NGZ">   160</i>
   <i type="int" name="NGXF">   240</i>
   <i type="int" name="NGYF">   240</i>
   <i type="int" name="NGZF">   320</i>
   <i type="logical" name="ADDGRID"> T  </i>
  </separator>
  <separator name="ionic" >
   <i type="int" name="NSW">   300</i>
   <i type="int" name="IBRION">     2</i>
   <i type="int" name="MDALGO">     0</i>
   <i type="int" name="ISIF">     2</i>
   <i name="PSTRESS">      0.00000000</i>
   <i name="EDIFFG">     -0.02000000</i>
   <i type="int" name="NFREE">     1</i>
   <i name="POTIM">      0.50000000</i>
   <i name="SMASS">     -3.00000000</i>
   <i name="SCALEE">      1.00000000</i>
  </separator>
  <separator name="ionic md" >
   <i name="TEBEG">      0.00010000</i>
   <i name="TEEND">      0.00010000</i>
   <i type="int" name="NBLOCK">     1</i>
   <i type="int" name="KBLOCK">   300</i>
   <i type="int" name="NPACO">   256</i>
   <i name="APACO">     10.00000000</i>
  </separator>
  <separator name="symmetry" >
   <i type="int" name="ISYM">     2</i>
   <i name="SYMPREC">      0.00001000</i>
  </separator>
  <separator name="dos" >
   <i type="int" name="LORBIT">     0</i>
   <v name="RWIGS">     -1.00000000     -1.00000000     -1.00000000</v>
   <i type="int" name="NEDOS">   301</i>
   <i name="EMIN">     10.00000000</i>
   <i name="EMAX">    -10.00000000</i>
   <i name="EFERMI">      0.00000000</i>
  </separator>
  <separator name="writing" >
   <i type="int" name="NWRITE">     2</i>
   <i type="logical" name="LWAVE"> F  </i>
   <i type="logical" name="LDOWNSAMPLE"> F  </i>
   <i type="logical" name="LCHARG"> F  </i>
   <i type="logical" name="LPARD"> F  </i>
   <i type="logical" name="LVTOT"> F  </i>
   <i type="logical" name="LVHAR"> F  </i>
   <i type="logical" name="LELF"> F  </i>
   <i type="logical" name="LOPTICS"> F  </i>
   <v name="STM">      0.00000000      0.00000000      0.00000000      0.00000000      0.00000000      0.00000000      0.00000000</v>
  </separator>
  <separator name="performance" >
   <i type="int" name="NPAR">    48</i>
   <i type="int" name="NSIM">     4</i>
   <i type="int" name="NBLK">    -1</i>
   <i type="logical" name="LPLANE"> T  </i>
   <i type="logical" name="LSCALAPACK"> T  </i>
   <i type="logical" name="LSCAAWARE"> F  </i>
   <i type="logical" name="LSCALU"> F  </i>
   <i type="logical" name="LASYNC"> F  </i>
   <i type="logical" name="LORBITALREAL"> F  </i>
  </separator>
  <separator name="miscellaneous" >
   <i type="int" name="IDIOT">     3</i>
   <i type="int" name="PHON_NSTRUCT">    -1</i>
   <i type="logical" name="LMUSIC"> F  </i>
   <v name="POMASS">    140.11500000     16.00000000    192.22000000</v>
   <v name="DARWINR">      0.00000000      0.00000000      0.00000000</v>
   <v name="DARWINV">      1.00000000      1.00000000      1.00000000</v>
   <i type="logical" name="LCORR"> T  </i>
  </separator>
  <i type="logical" name="GGA_COMPAT"> T  </i>
  <i type="logical" name="LBERRY"> F  </i>
  <i type="int" name="ICORELEVEL">     0</i>
  <i type="logical" name="LDAU"> T  </i>
  <v type="int" name="LDAUTYPE">     2</v>
  <v type="int" name="LDAUL">     3</v>
  <v name="LDAUU">      5.00000000</v>
  <v name="LDAUJ">      0.00000000</v>
  <i type="int" name="LDAUPRINT">     0</i>
  <i type="int" name="I_CONSTRAINED_M">     0</i>
  <separator name="electronic exchange-correlation" >
   <i type="string" name="GGA    ">PE</i>
   <i type="string" name="XC_C">1</i>
   <i type="int" name="VOSKOWN">     0</i>
   <i type="logical" name="LHFCALC"> F  </i>
   <i type="string" name="PRECFOCK"></i>
   <i type="logical" name="LSYMGRAD"> F  </i>
   <i type="logical" name="LHFONE"> F  </i>
   <i type="logical" name="LRHFCALC"> F  </i>
   <i type="logical" name="LTHOMAS"> F  </i>
   <i type="logical" name="LMODELHF"> F  </i>
   <i type="logical" name="LFOCKACE"> F  </i>
   <i name="ENCUT4O">     -1.00000000</i>
   <i type="int" name="EXXOEP">     0</i>
   <i type="int" name="FOURORBIT">     0</i>
   <i name="AEXX">      0.00000000</i>
   <i name="HFALPHA">      0.00000000</i>
   <i name="MCALPHA">      0.00000000</i>
   <i name="ALDAX">      1.00000000</i>
   <i name="AGGAX">      1.00000000</i>
   <i name="AMGGAX">      1.00000000</i>
   <i name="ALDAC">      1.00000000</i>
   <i name="AGGAC">      1.00000000</i>
   <i name="AMGGAC">      1.00000000</i>
   <i type="int" name="NKREDX">     1</i>
   <i type="int" name="NKREDY">     1</i>
   <i type="int" name="NKREDZ">     1</i>
   <i type="logical" name="SHIFTRED"> F  </i>
   <i type="logical" name="ODDONLY"> F  </i>
   <i type="logical" name="EVENONLY"> F  </i>
   <i type="int" name="LMAXFOCK">     0</i>
   <i type="int" name="NMAXFOCKAE">     0</i>
   <i type="logical" name="LFOCKAEDFT"> F  </i>
   <i name="HFSCREEN">      0.00000000</i>
   <i name="HFSCREENC">      0.00000000</i>
   <i type="int" name="NBANDSGWLOW">     0</i>
  </separator>
  <separator name="vdW DFT" >
   <i type="logical" name="LUSE_VDW"> F  </i>
   <i type="int" name="IVDW_NL">    -1</i>
   <i type="logical" name="LSPIN_VDW"> F  </i>
   <i name="ZAB_VDW">     -0.84910000</i>
   <i name="GAMMA_VDW">      1.39626340</i>
   <i name="ALPHA_VDW">      0.00000000</i>
   <i name="PARAM1">      0.12340000</i>
   <i name="PARAM2">      1.00000000</i>
   <i name="BPARAM">      6.30000000</i>
   <i name="CPARAM">      0.00930000</i>
  </separator>
  <separator name="model GW" >
   <i type="int" name="MODEL_GW">     0</i>
   <i name="MODEL_EPS0">     19.51877686</i>
   <i name="MODEL_ALPHA">      1.00000000</i>
  </separator>
  <separator name="linear response parameters" >
   <i type="logical" name="LEPSILON"> F  </i>
   <i type="logical" name="LRPA"> F  </i>
   <i type="logical" name="LNABLA"> F  </i>
   <i type="logical" name="LVEL"> F  </i>
   <i name="CSHIFT">      0.10000000</i>
   <i name="OMEGAMAX">     -1.00000000</i>
   <i name="DEG_THRESHOLD">      0.00200000</i>
   <i name="RTIME">     -0.10000000</i>
   <i name="WPLASMAI">      0.00000000</i>
   <v name="DFIELD">      0.00000000      0.00000000      0.00000000</v>
   <v name="WPLASMA">      0.00000000      0.00000000      0.00000000      0.00000000      0.00000000      0.00000000      0.00000000      0.00000000      0.00000000</v>
  </separator>
  <separator name="orbital magnetization" >
   <i type="logical" name="NUCIND"> F  </i>
   <v name="MAGPOS">      0.00000000      0.00000000      0.00000000</v>
   <i type="logical" name="LNICSALL"> T  </i>
   <i type="logical" name="ORBITALMAG"> F  </i>
   <i type="logical" name="LMAGBLOCH"> F  </i>
   <i type="logical" name="LCHIMAG"> F  </i>
   <i type="logical" name="LGAUGE"> T  </i>
   <i type="int" name="MAGATOM">     0</i>
   <v name="MAGDIPOL">      0.00000000      0.00000000      0.00000000</v>
   <v name="AVECCONST">      0.00000000      0.00000000      0.00000000</v>
  </separator>
  <separator name="response functions" >
   <i type="logical" name="LALL_IN_ONE"> F  </i>
   <i type="int" name="IALL_IN_ONE">    -1</i>
   <i type="int" name="NBANDS_WAVE">    -1</i>
   <i type="logical" name="LFINITE_TEMPERATURE"> F  </i>
   <i type="logical" name="LADDER"> F  </i>
   <i type="logical" name="LRPAFORCE"> F  </i>
   <i type="logical" name="LFXC"> F  </i>
   <i type="logical" name="LHARTREE"> T  </i>
   <i type="int" name="IBSE">     0</i>
   <v type="int" name="KPOINT">    -1     0     0     0</v>
   <i type="logical" name="LTCTC"> F  </i>
   <i type="logical" name="LTCTE"> F  </i>
   <i type="logical" name="LTETE"> F  </i>
   <i type="logical" name="LTRIPLET"> F  </i>
   <i type="logical" name="LFXCEPS"> F  </i>
   <i type="logical" name="LFXHEG"> F  </i>
   <i type="int" name="NATURALO">     2</i>
   <i type="logical" name="LHOLEGF"> F  </i>
   <i type="logical" name="L2ORDER"> F  </i>
   <i type="logical" name="LDMP1"> F  </i>
   <i type="logical" name="LMP2LT"> F  </i>
   <i type="logical" name="LSMP2LT"> F  </i>
   <i type="logical" name="LGWLF"> F  </i>
   <i name="ENCUTGW">     -1.60000002</i>
   <i name="ENCUTGWSOFT">     -1.60000002</i>
   <i name="ENCUTLF">     -1.00000000</i>
   <i type="logical" name="ESF_SPLINES"> F  </i>
   <i name="ESF_CONV">      0.01000000</i>
   <i type="int" name="ESF_NINTER">    15</i>
   <i type="int" name="LMAXMP2">    -1</i>
   <i name="SCISSOR">      0.00000000</i>
   <i type="int" name="NOMEGA">     0</i>
   <i type="int" name="NOMEGAR">     0</i>
   <i type="int" name="NBANDSGW">    -1</i>
   <i type="int" name="NBANDSO">    -1</i>
   <i type="int" name="NBANDSV">    -1</i>
   <i type="int" name="NELMGW">     1</i>
   <i type="int" name="NELMHF">     1</i>
   <i type="int" name="DIM">     3</i>
   <i type="int" name="IESPILON">     4</i>
   <i type="int" name="ANTIRES">     0</i>
   <i name="OMEGAMAX">    -30.00000000</i>
   <i name="OMEGAMIN">    -30.00000000</i>
   <i name="OMEGATL">   -200.00000000</i>
   <i type="int" name="OMEGAGRID">     0</i>
   <i name="CSHIFT">     -0.10000000</i>
   <i type="logical" name="LSELFENERGY"> F  </i>
   <i type="logical" name="LSPECTRAL"> F  </i>
   <i type="logical" name="LSPECTRALGW"> F  </i>
   <i type="logical" name="LSINGLES"> F  </i>
   <i type="logical" name="LFERMIGW"> F  </i>
   <i type="logical" name="ODDONLYGW"> F  </i>
   <i type="logical" name="EVENONLYGW"> F  </i>
   <i type="int" name="NKREDLFX">     1</i>
   <i type="int" name="NKREDLFY">     1</i>
   <i type="int" name="NKREDLFZ">     1</i>
   <i type="int" name="MAXMEM">  2800</i>
   <i type="int" name="TELESCOPE">     0</i>
   <i type="int" name="NTAUPAR">    -1</i>
   <i type="int" name="NOMEGAPAR">    -1</i>
   <i name="DAMP_NEWTON">      0.80000001</i>
   <i name="LAMBDA">      1.00000000</i>
  </separator>
  <separator name="External order field" >
   <i name="OFIELD_KAPPA">      0.00000000</i>
   <v name="OFIELD_K">      0.00000000      0.00000000      0.00000000</v>
   <i name="OFIELD_Q6_NEAR">      0.00000000</i>
   <i name="OFIELD_Q6_FAR">      0.00000000</i>
   <i name="OFIELD_A">      0.00000000</i>
  </separator>
  <separator name="optional k-points parameters" >
   <i type="int" name="KPOINTS_OPT_MODE">     1</i>
   <i type="logical" name="LKPOINTS_OPT"> F  </i>
  </separator>
 </parameters>
 <atominfo>
  <atoms>     134 </atoms>
  <types>       3 </types>
  <array name="atoms" >
   <dimension dim="1">ion</dimension>
   <field type="string">element</field>
   <field type="int">atomtype</field>
   <set>
    <rc><c>Ce</c><c>   1</c></rc>
    <rc><c>Ce</c><c>   1</c></rc>
    <rc><c>Ce</c><c>   1</c></rc>
    <rc><c>Ce</c><c>   1</c></rc>
    <rc><c>Ce</c><c>   1</c></rc>
    <rc><c>Ce</c><c>   1</c></rc>
    <rc><c>Ce</c><c>   1</c></rc>
    <rc><c>Ce</c><c>   1</c></rc>
    <rc><c>Ce</c><c>   1</c></rc>
    <rc><c>Ce</c><c>   1</c></rc>
    <rc><c>Ce</c><c>   1</c></rc>
    <rc><c>Ce</c><c>   1</c></rc>
    <rc><c>Ce</c><c>   1</c></rc>
    <rc><c>Ce</c><c>   1</c></rc>
    <rc><c>Ce</c><c>   1</c></rc>
    <rc><c>Ce</c><c>   1</c></rc>
    <rc><c>Ce</c><c>   1</c></rc>
    <rc><c>Ce</c><c>   1</c></rc>
    <rc><c>Ce</c><c>   1</c></rc>
    <rc><c>Ce</c><c>   1</c></rc>
    <rc><c>Ce</c><c>   1</c></rc>
    <rc><c>Ce</c><c>   1</c></rc>
    <rc><c>Ce</c><c>   1</c></rc>
    <rc><c>Ce</c><c>   1</c></rc>
    <rc><c>Ce</c><c>   1</c></rc>
    <rc><c>Ce</c><c>   1</c></rc>
    <rc><c>Ce</c><c>   1</c></rc>
    <rc><c>Ce</c><c>   1</c></rc>
    <rc><c>Ce</c><c>   1</c></rc>
    <rc><c>Ce</c><c>   1</c></rc>
    <rc><c>Ce</c><c>   1</c></rc>
    <rc><c>Ce</c><c>   1</c></rc>
    <rc><c>O </c><c>   2</c></rc>
    <rc><c>O </c><c>   2</c></rc>
    <rc><c>O </c><c>   2</c></rc>
    <rc><c>O </c><c>   2</c></rc>
    <rc><c>O </c><c>   2</c></rc>
    <rc><c>O </c><c>   2</c></rc>
    <rc><c>O </c><c>   2</c></rc>
    <rc><c>O </c><c>   2</c></rc>
    <rc><c>O </c><c>   2</c></rc>
    <rc><c>O </c><c>   2</c></rc>
    <rc><c>O </c><c>   2</c></rc>
    <rc><c>O </c><c>   2</c></rc>
    <rc><c>O </c><c>   2</c></rc>
    <rc><c>O </c><c>   2</c></rc>
    <rc><c>O </c><c>   2</c></rc>
    <rc><c>O </c><c>   2</c></rc>
    <rc><c>O </c><c>   2</c></rc>
    <rc><c>O </c><c>   2</c></rc>
    <rc><c>O </c><c>   2</c></rc>
    <rc><c>O </c><c>   2</c></rc>
    <rc><c>O </c><c>   2</c></rc>
    <rc><c>O </c><c>   2</c></rc>
    <rc><c>O </c><c>   2</c></rc>
    <rc><c>O </c><c>   2</c></rc>
    <rc><c>O </c><c>   2</c></rc>
    <rc><c>O </c><c>   2</c></rc>
    <rc><c>O </c><c>   2</c></rc>
    <rc><c>O </c><c>   2</c></rc>
    <rc><c>O </c><c>   2</c></rc>
    <rc><c>O </c><c>   2</c></rc>
    <rc><c>O </c><c>   2</c></rc>
    <rc><c>O </c><c>   2</c></rc>
    <rc><c>O </c><c>   2</c></rc>
    <rc><c>O </c><c>   2</c></rc>
    <rc><c>O </c><c>   2</c></rc>
    <rc><c>O </c><c>   2</c></rc>
    <rc><c>O </c><c>   2</c></rc>
    <rc><c>O </c><c>   2</c></rc>
    <rc><c>O </c><c>   2</c></rc>
    <rc><c>O </c><c>   2</c></rc>
    <rc><c>O </c><c>   2</c></rc>
    <rc><c>O </c><c>   2</c></rc>
    <rc><c>O </c><c>   2</c></rc>
    <rc><c>O </c><c>   2</c></rc>
    <rc><c>O </c><c>   2</c></rc>
    <rc><c>O </c><c>   2</c></rc>
    <rc><c>O </c><c>   2</c></rc>
    <rc><c>O </c><c>   2</c></rc>
    <rc><c>O </c><c>   2</c></rc>
    <rc><c>O </c><c>   2</c></rc>
    <rc><c>O </c><c>   2</c></rc>
    <rc><c>O </c><c>   2</c></rc>
    <rc><c>O </c><c>   2</c></rc>
    <rc><c>O </c><c>   2</c></rc>
    <rc><c>O </c><c>   2</c></rc>
    <rc><c>O </c><c>   2</c></rc>
    <rc><c>O </c><c>   2</c></rc>
    <rc><c>O </c><c>   2</c></rc>
    <rc><c>O </c><c>   2</c></rc>
    <rc><c>O </c><c>   2</c></rc>
    <rc><c>O </c><c>   2</c></rc>
    <rc><c>O </c><c>   2</c></rc>
    <rc><c>O </c><c>   2</c></rc>
    <rc><c>O </c><c>   2</c></rc>
    <rc><c>O </c><c>   2</c></rc>
    <rc><c>O </c><c>   2</c></rc>
    <rc><c>O </c><c>   2</c></rc>
    <rc><c>O </c><c>   2</c></rc>
    <rc><c>O </c><c>   2</c></rc>
    <rc><c>O </c><c>   2</c></rc>
    <rc><c>O </c><c>   2</c></rc>
    <rc><c>O </c><c>   2</c></rc>
    <rc><c>O </c><c>   2</c></rc>
    <rc><c>O </c><c>   2</c></rc>
    <rc><c>O </c><c>   2</c></rc>
    <rc><c>O </c><c>   2</c></rc>
    <rc><c>O </c><c>   2</c></rc>
    <rc><c>O </c><c>   2</c></rc>
    <rc><c>O </c><c>   2</c></rc>
    <rc><c>O </c><c>   2</c></rc>
    <rc><c>O </c><c>   2</c></rc>
    <rc><c>O </c><c>   2</c></rc>
    <rc><c>O </c><c>   2</c></rc>
    <rc><c>O </c><c>   2</c></rc>
    <rc><c>O </c><c>   2</c></rc>
    <rc><c>O </c><c>   2</c></rc>
    <rc><c>O </c><c>   2</c></rc>
    <rc><c>O </c><c>   2</c></rc>
    <rc><c>O </c><c>   2</c></rc>
    <rc><c>O </c><c>   2</c></rc>
    <rc><c>O </c><c>   2</c></rc>
    <rc><c>O </c><c>   2</c></rc>
    <rc><c>O </c><c>   2</c></rc>
    <rc><c>O </c><c>   2</c></rc>
    <rc><c>O </c><c>   2</c></rc>
    <rc><c>O </c><c>   2</c></rc>
    <rc><c>O </c><c>   2</c></rc>
    <rc><c>O </c><c>   2</c></rc>
    <rc><c>Ir</c><c>   3</c></rc>
    <rc><c>Ir</c><c>   3</c></rc>
    <rc><c>Ir</c><c>   3</c></rc>
    <rc><c>Ir</c><c>   3</c></rc>
   </set>
  </array>
  <array name="atomtypes" >
   <dimension dim="1">type</dimension>
   <field type="int">atomspertype</field>
   <field type="string">element</field>
   <field>mass</field>
   <field>valence</field>
   <field type="string">pseudopotential</field>
   <set>
    <rc><c>  32</c><c>Ce</c><c>    140.11500000</c><c>     12.00000000</c><c>  PAW_PBE Ce 23Dec2003                  </c></rc>
    <rc><c>  98</c><c>O </c><c>     16.00000000</c><c>      6.00000000</c><c>  PAW_PBE O 08Apr2002                   </c></rc>
    <rc><c>   4</c><c>Ir</c><c>    192.22000000</c><c>      9.00000000</c><c>  PAW_PBE Ir 06Sep2000                  </c></rc>
   </set>
  </array>
 </atominfo>
 <structure name="initialpos" >
  <crystal>
   <varray name="basis" >
    <v>      15.46430016       0.00000000       0.00000000 </v>
    <v>      -7.73215008      13.39247679       0.00000000 </v>
    <v>       0.00000000       0.00000000      21.04820061 </v>
   </varray>
   <i name="volume">   4359.19349823 </i>
   <varray name="rec_basis" >
    <v>       0.06466507       0.03733439       0.00000000 </v>
    <v>       0.00000000       0.07466879       0.00000000 </v>
    <v>       0.00000000       0.00000000       0.04751000 </v>
   </varray>
  </crystal>
  <varray name="positions" >
   <v>       0.00000000       0.00000000       0.45993000 </v>
   <v>       0.16667000       0.08333000       0.30996000 </v>
   <v>       0.25000000       0.00000000       0.45993000 </v>
   <v>       0.41667000       0.08333000       0.30996000 </v>
   <v>       0.50000000       0.00000000       0.45993000 </v>
   <v>       0.66667000       0.08333000       0.30996000 </v>
   <v>       0.75000000       0.00000000       0.45993000 </v>
   <v>       0.91667000       0.08333000       0.30996000 </v>
   <v>       0.00000000       0.25000000       0.45993000 </v>
   <v>       0.16667000       0.33333000       0.30996000 </v>
   <v>       0.25000000       0.25000000       0.45993000 </v>
   <v>       0.41667000       0.33333000       0.30996000 </v>
   <v>       0.50000000       0.25000000       0.45993000 </v>
   <v>       0.66667000       0.33333000       0.30996000 </v>
   <v>       0.75000000       0.25000000       0.45993000 </v>
   <v>       0.91667000       0.33333000       0.30996000 </v>
   <v>       0.00000000       0.50000000       0.45993000 </v>
   <v>       0.16667000       0.58333000       0.30996000 </v>
   <v>       0.25000000       0.50000000       0.45993000 </v>
   <v>       0.41667000       0.58333000       0.30996000 </v>
   <v>       0.50000000       0.50000000       0.45993000 </v>
   <v>       0.66667000       0.58333000       0.30996000 </v>
   <v>       0.75000000       0.50000000       0.45993000 </v>
   <v>       0.91667000       0.58333000       0.30996000 </v>
   <v>       0.00000000       0.75000000       0.45993000 </v>
   <v>       0.16667000       0.83333000       0.30996000 </v>
   <v>       0.25000000       0.75000000       0.45993000 </v>
   <v>       0.41667000       0.83333000       0.30996000 </v>
   <v>       0.50000000       0.75000000       0.45993000 </v>
   <v>       0.66667000       0.83333000       0.30996000 </v>
   <v>       0.75000000       0.75000000       0.45993000 </v>
   <v>       0.91667000       0.83333000       0.30996000 </v>
   <v>       0.08333000       0.16667000       0.27247000 </v>
   <v>       0.16667000       0.08333000       0.42244000 </v>
   <v>       0.08333000       0.16667000       0.49742000 </v>
   <v>       0.00000000       0.00000000       0.34745000 </v>
   <v>       0.16667000       0.08333000       0.19748000 </v>
   <v>       0.20842000       0.04158000       0.58116000 </v>
   <v>       0.33333000       0.16667000       0.27247000 </v>
   <v>       0.41667000       0.08333000       0.42244000 </v>
   <v>       0.33333000       0.16667000       0.49742000 </v>
   <v>       0.25000000       0.00000000       0.34745000 </v>
   <v>       0.41667000       0.08333000       0.19748000 </v>
   <v>       0.58333000       0.16667000       0.27247000 </v>
   <v>       0.66667000       0.08333000       0.42244000 </v>
   <v>       0.58333000       0.16667000       0.49742000 </v>
   <v>       0.50000000       0.00000000       0.34745000 </v>
   <v>       0.66667000       0.08333000       0.19748000 </v>
   <v>       0.70872000       0.04128000       0.58444000 </v>
   <v>       0.83333000       0.16667000       0.27247000 </v>
   <v>       0.91667000       0.08333000       0.42244000 </v>
   <v>       0.83333000       0.16667000       0.49742000 </v>
   <v>       0.75000000       0.00000000       0.34745000 </v>
   <v>       0.91667000       0.08333000       0.19748000 </v>
   <v>       0.08333000       0.41667000       0.27247000 </v>
   <v>       0.16667000       0.33333000       0.42244000 </v>
   <v>       0.08333000       0.41667000       0.49742000 </v>
   <v>       0.00000000       0.25000000       0.34745000 </v>
   <v>       0.16667000       0.33333000       0.19748000 </v>
   <v>       0.33333000       0.41667000       0.27247000 </v>
   <v>       0.41667000       0.33333000       0.42244000 </v>
   <v>       0.33333000       0.41667000       0.49742000 </v>
   <v>       0.25000000       0.25000000       0.34745000 </v>
   <v>       0.41667000       0.33333000       0.19748000 </v>
   <v>       0.45842000       0.29158000       0.58116000 </v>
   <v>       0.58333000       0.41667000       0.27247000 </v>
   <v>       0.66667000       0.33333000       0.42244000 </v>
   <v>       0.58333000       0.41667000       0.49742000 </v>
   <v>       0.50000000       0.25000000       0.34745000 </v>
   <v>       0.66667000       0.33333000       0.19748000 </v>
   <v>       0.83333000       0.41667000       0.27247000 </v>
   <v>       0.91667000       0.33333000       0.42244000 </v>
   <v>       0.83333000       0.41667000       0.49742000 </v>
   <v>       0.75000000       0.25000000       0.34745000 </v>
   <v>       0.91667000       0.33333000       0.19748000 </v>
   <v>       0.08333000       0.66667000       0.27247000 </v>
   <v>       0.16667000       0.58333000       0.42244000 </v>
   <v>       0.08333000       0.66667000       0.49742000 </v>
   <v>       0.00000000       0.50000000       0.34745000 </v>
   <v>       0.16667000       0.58333000       0.19748000 </v>
   <v>       0.20872000       0.54128000       0.58444000 </v>
   <v>       0.33333000       0.66667000       0.27247000 </v>
   <v>       0.41667000       0.58333000       0.42244000 </v>
   <v>       0.33333000       0.66667000       0.49742000 </v>
   <v>       0.25000000       0.50000000       0.34745000 </v>
   <v>       0.41667000       0.58333000       0.19748000 </v>
   <v>       0.58333000       0.66667000       0.27247000 </v>
   <v>       0.66667000       0.58333000       0.42244000 </v>
   <v>       0.58333000       0.66667000       0.49742000 </v>
   <v>       0.50000000       0.50000000       0.34745000 </v>
   <v>       0.66667000       0.58333000       0.19748000 </v>
   <v>       0.70842000       0.54158000       0.58116000 </v>
   <v>       0.83333000       0.66667000       0.27247000 </v>
   <v>       0.91667000       0.58333000       0.42244000 </v>
   <v>       0.83333000       0.66667000       0.49742000 </v>
   <v>       0.75000000       0.50000000       0.34745000 </v>
   <v>       0.91667000       0.58333000       0.19748000 </v>
   <v>       0.08333000       0.91667000       0.27247000 </v>
   <v>       0.16667000       0.83333000       0.42244000 </v>
   <v>       0.08333000       0.91667000       0.49742000 </v>
   <v>       0.00000000       0.75000000       0.34745000 </v>
   <v>       0.16667000       0.83333000       0.19748000 </v>
   <v>       0.33333000       0.91667000       0.27247000 </v>
   <v>       0.41667000       0.83333000       0.42244000 </v>
   <v>       0.33333000       0.91667000       0.49742000 </v>
   <v>       0.25000000       0.75000000       0.34745000 </v>
   <v>       0.41667000       0.83333000       0.19748000 </v>
   <v>       0.45872000       0.79128000       0.58444000 </v>
   <v>       0.58333000       0.91667000       0.27247000 </v>
   <v>       0.66667000       0.83333000       0.42244000 </v>
   <v>       0.58333000       0.91667000       0.49742000 </v>
   <v>       0.50000000       0.75000000       0.34745000 </v>
   <v>       0.66667000       0.83333000       0.19748000 </v>
   <v>       0.83333000       0.91667000       0.27247000 </v>
   <v>       0.91667000       0.83333000       0.42244000 </v>
   <v>       0.83333000       0.91667000       0.49742000 </v>
   <v>       0.75000000       0.75000000       0.34745000 </v>
   <v>       0.91667000       0.83333000       0.19748000 </v>
   <v>       0.51426000       0.49220000       0.58386000 </v>
   <v>       0.26652000       0.73994000       0.59099000 </v>
   <v>       0.51652000       0.98994000       0.59099000 </v>
   <v>       0.58851000       0.41951000       0.67258000 </v>
   <v>       0.33754000       0.67048000       0.67250000 </v>
   <v>       0.58754000       0.92048000       0.67250000 </v>
   <v>       0.65929000       0.34869000       0.58011000 </v>
   <v>       0.40939000       0.59859000       0.58424000 </v>
   <v>       0.65939000       0.84859000       0.58424000 </v>
   <v>       0.26112000       0.24167000       0.58188000 </v>
   <v>       0.33537000       0.16898000       0.67060000 </v>
   <v>       0.40614000       0.09816000       0.57813000 </v>
   <v>       0.58502000       0.91424000       0.58749000 </v>
   <v>       0.34137000       0.67329000       0.58504000 </v>
   <v>       0.59736000       0.42997000       0.58157000 </v>
   <v>       0.34421000       0.17945000       0.57959000 </v>
  </varray>
  <varray name="selective"  type="logical" >
   <v type="logical" >  T  T  T </v>
   <v type="logical" >  F  F  F </v>
   <v type="logical" >  T  T  T </v>
   <v type="logical" >  F  F  F </v>
   <v type="logical" >  T  T  T </v>
   <v type="logical" >  F  F  F </v>
   <v type="logical" >  T  T  T </v>
   <v type="logical" >  F  F  F </v>
   <v type="logical" >  T  T  T </v>
   <v type="logical" >  F  F  F </v>
   <v type="logical" >  T  T  T </v>
   <v type="logical" >  F  F  F </v>
   <v type="logical" >  T  T  T </v>
   <v type="logical" >  F  F  F </v>
   <v type="logical" >  T  T  T </v>
   <v type="logical" >  F  F  F </v>
   <v type="logical" >  T  T  T </v>
   <v type="logical" >  F  F  F </v>
   <v type="logical" >  T  T  T </v>
   <v type="logical" >  F  F  F </v>
   <v type="logical" >  T  T  T </v>
   <v type="logical" >  F  F  F </v>
   <v type="logical" >  T  T  T </v>
   <v type="logical" >  F  F  F </v>
   <v type="logical" >  T  T  T </v>
   <v type="logical" >  F  F  F </v>
   <v type="logical" >  T  T  T </v>
   <v type="logical" >  F  F  F </v>
   <v type="logical" >  T  T  T </v>
   <v type="logical" >  F  F  F </v>
   <v type="logical" >  T  T  T </v>
   <v type="logical" >  F  F  F </v>
   <v type="logical" >  F  F  F </v>
   <v type="logical" >  T  T  T </v>
   <v type="logical" >  T  T  T </v>
   <v type="logical" >  F  F  F </v>
   <v type="logical" >  F  F  F </v>
   <v type="logical" >  T  T  T </v>
   <v type="logical" >  F  F  F </v>
   <v type="logical" >  T  T  T </v>
   <v type="logical" >  T  T  T </v>
   <v type="logical" >  F  F  F </v>
   <v type="logical" >  F  F  F </v>
   <v type="logical" >  F  F  F </v>
   <v type="logical" >  T  T  T </v>
   <v type="logical" >  T  T  T </v>
   <v type="logical" >  F  F  F </v>
   <v type="logical" >  F  F  F </v>
   <v type="logical" >  T  T  T </v>
   <v type="logical" >  F  F  F </v>
   <v type="logical" >  T  T  T </v>
   <v type="logical" >  T  T  T </v>
   <v type="logical" >  F  F  F </v>
   <v type="logical" >  F  F  F </v>
   <v type="logical" >  F  F  F </v>
   <v type="logical" >  T  T  T </v>
   <v type="logical" >  T  T  T </v>
   <v type="logical" >  F  F  F </v>
   <v type="logical" >  F  F  F </v>
   <v type="logical" >  F  F  F </v>
   <v type="logical" >  T  T  T </v>
   <v type="logical" >  T  T  T </v>
   <v type="logical" >  F  F  F </v>
   <v type="logical" >  F  F  F </v>
   <v type="logical" >  T  T  T </v>
   <v type="logical" >  F  F  F </v>
   <v type="logical" >  T  T  T </v>
   <v type="logical" >  T  T  T </v>
   <v type="logical" >  F  F  F </v>
   <v type="logical" >  F  F  F </v>
   <v type="logical" >  F  F  F </v>
   <v type="logical" >  T  T  T </v>
   <v type="logical" >  T  T  T </v>
   <v type="logical" >  F  F  F </v>
   <v type="logical" >  F  F  F </v>
   <v type="logical" >  F  F  F </v>
   <v type="logical" >  T  T  T </v>
   <v type="logical" >  T  T  T </v>
   <v type="logical" >  F  F  F </v>
   <v type="logical" >  F  F  F </v>
   <v type="logical" >  T  T  T </v>
   <v type="logical" >  F  F  F </v>
   <v type="logical" >  T  T  T </v>
   <v type="logical" >  T  T  T </v>
   <v type="logical" >  F  F  F </v>
   <v type="logical" >  F  F  F </v>
   <v type="logical" >  F  F  F </v>
   <v type="logical" >  T  T  T </v>
   <v type="logical" >  T  T  T </v>
   <v type="logical" >  F  F  F </v>
   <v type="logical" >  F  F  F </v>
   <v type="logical" >  T  T  T </v>
   <v type="logical" >  F  F  F </v>
   <v type="logical" >  T  T  T </v>
   <v type="logical" >  T  T  T </v>
   <v type="logical" >  F  F  F </v>
   <v type="logical" >  F  F  F </v>
   <v type="logical" >  F  F  F </v>
   <v type="logical" >  T  T  T </v>
   <v type="logical" >  T  T  T </v>
   <v type="logical" >  F  F  F </v>
   <v type="logical" >  F  F  F </v>
   <v type="logical" >  F  F  F </v>
   <v type="logical" >  T  T  T </v>
   <v type="logical" >  T  T  T </v>
   <v type="logical" >  F  F  F </v>
   <v type="logical" >  F  F  F </v>
   <v type="logical" >  T  T  T </v>
   <v type="logical" >  F  F  F </v>
   <v type="logical" >  T  T  T </v>
   <v type="logical" >  T  T  T </v>
   <v type="logical" >  F  F  F </v>
   <v type="logical" >  F  F  F </v>
   <v type="logical" >  F  F  F </v>
   <v type="logical" >  T  T  T </v>
   <v type="logical" >  T  T  T </v>
   <v type="logical" >  F  F  F </v>
   <v type="logical" >  F  F  F </v>
   <v type="logical" >  T  T  T </v>
   <v type="logical" >  T  T  T </v>
   <v type="logical" >  T  T  T </v>
   <v type="logical" >  T  T  T </v>
   <v type="logical" >  T  T  T </v>
   <v type="logical" >  T  T  T </v>
   <v type="logical" >  T  T  T </v>
   <v type="logical" >  T  T  T </v>
   <v type="logical" >  T  T  T </v>
   <v type="logical" >  T  T  T </v>
   <v type="logical" >  T  T  T </v>
   <v type="logical" >  T  T  T </v>
   <v type="logical" >  T  T  T </v>
   <v type="logical" >  T  T  T </v>
   <v type="logical" >  T  T  T </v>
   <v type="logical" >  T  T  T </v>
  </varray>
  <nose>
   <v>      -3.00000000       0.00000000       0.00010000       0.00010000 </v>
  </nose>
 </structure>
 <calculation>
  <scstep>
   <time name="dav">    7.33    7.43</time>
   <time name="total">    8.79    8.90</time>
   <energy>
    <i name="alphaZ">   1939.80149885 </i>
    <i name="ewald"> 207094.69905944 </i>
    <i name="hartreedc">-277771.79820298 </i>
    <i name="XCdc">   2791.02621123 </i>
    <i name="pawpsdc">  63387.44242396 </i>
    <i name="pawaedc"> -62600.79021333 </i>
    <i name="eentropy">     -0.04049043 </i>
    <i name="bandstr">   5027.14169941 </i>
    <i name="atom">  78630.14029091 </i>
    <i name="e_fr_energy">  18497.62227708 </i>
    <i name="e_wo_entrp">  18497.66276751 </i>
    <i name="e_0_energy">  18497.64252229 </i>
   </energy>
  </scstep>
  <scstep>
   <time name="dav">    8.05    8.05</time>
   <time name="total">    8.05    8.06</time>
   <energy>
    <i name="e_fr_energy">   5817.74092657 </i>
    <i name="e_wo_entrp">   5817.91315715 </i>
    <i name="e_0_energy">   5817.82704186 </i>
   </energy>
  </scstep>
  <scstep>
   <time name="dav">    8.91    8.92</time>
   <time name="total">    8.92    8.92</time>
   <energy>
    <i name="e_fr_energy">    241.12205021 </i>
    <i name="e_wo_entrp">    241.35329316 </i>
    <i name="e_0_energy">    241.23767168 </i>
   </energy>
  </scstep>
  <scstep>
   <time name="dav">    9.40    9.41</time>
   <time name="total">    9.40    9.41</time>
   <energy>
    <i name="e_fr_energy">  -1062.20634421 </i>
    <i name="e_wo_entrp">  -1062.13874371 </i>
    <i name="e_0_energy">  -1062.17254396 </i>
   </energy>
  </scstep>
  <scstep>
   <time name="dav">   10.72   10.73</time>
   <time name="total">   12.04   12.05</time>
   <energy>
    <i name="e_fr_energy">  -1168.66092612 </i>
    <i name="e_wo_entrp">  -1168.46970784 </i>
    <i name="e_0_energy">  -1168.56531698 </i>
   </energy>
  </scstep>
  <scstep>
   <time name="dav">   10.59   10.60</time>
   <time name="total">   13.36   13.37</time>
   <energy>
    <i name="e_fr_energy">  -1192.73099971 </i>
    <i name="e_wo_entrp">  -1192.47950812 </i>
    <i name="e_0_energy">  -1192.60525392 </i>
   </energy>
  </scstep>
  <scstep>
   <time name="dav">   11.11   11.11</time>
   <time name="total">   13.80   13.80</time>
   <energy>
    <i name="e_fr_energy">   -920.71552790 </i>
    <i name="e_wo_entrp">   -920.63010128 </i>
    <i name="e_0_energy">   -920.67281459 </i>
   </energy>
  </scstep>
  <scstep>
   <time name="dav">   11.17   11.17</time>
   <time name="total">   13.81   13.82</time>
   <energy>
    <i name="e_fr_energy">  -1225.55730117 </i>
    <i name="e_wo_entrp">  -1225.46481214 </i>
    <i name="e_0_energy">  -1225.51105665 </i>
   </energy>
  </scstep>
  <scstep>
   <time name="dav">   10.20   10.21</time>
   <time name="total">   12.89   12.90</time>
   <energy>
    <i name="e_fr_energy">  -1349.62511270 </i>
    <i name="e_wo_entrp">  -1349.41679957 </i>
    <i name="e_0_energy">  -1349.52095614 </i>
   </energy>
  </scstep>
  <scstep>
   <time name="dav">   10.25   10.26</time>
   <time name="total">   12.93   12.94</time>
   <energy>
    <i name="e_fr_energy">  -1156.36447884 </i>
    <i name="e_wo_entrp">  -1156.15590035 </i>
    <i name="e_0_energy">  -1156.26018959 </i>
   </energy>
  </scstep>
  <scstep>
   <time name="dav">    9.75    9.75</time>
   <time name="total">   12.37   12.37</time>
   <energy>
    <i name="e_fr_energy">  -1329.02682786 </i>
    <i name="e_wo_entrp">  -1328.93473014 </i>
    <i name="e_0_energy">  -1328.98077900 </i>
   </energy>
  </scstep>
  <scstep>
   <time name="dav">   10.32   10.32</time>
   <time name="total">   12.99   13.00</time>
   <energy>
    <i name="e_fr_energy">  -1207.66156884 </i>
    <i name="e_wo_entrp">  -1207.55853827 </i>
    <i name="e_0_energy">  -1207.61005356 </i>
   </energy>
  </scstep>
  <scstep>
   <time name="dav">    9.65    9.66</time>
   <time name="total">   12.30   12.30</time>
   <energy>
    <i name="e_fr_energy">  -1001.60108474 </i>
    <i name="e_wo_entrp">  -1001.55371008 </i>
    <i name="e_0_energy">  -1001.57739741 </i>
   </energy>
  </scstep>
  <scstep>
   <time name="dav">   10.50   10.50</time>
   <time name="total">   13.18   13.19</time>
   <energy>
    <i name="e_fr_energy">   -916.31387919 </i>
    <i name="e_wo_entrp">   -916.13148562 </i>
    <i name="e_0_energy">   -916.22268240 </i>
   </energy>
  </scstep>
  <scstep>
   <time name="dav">    9.46    9.47</time>
   <time name="total">   12.09   12.10</time>
   <energy>
    <i name="e_fr_energy">   -887.72338520 </i>
    <i name="e_wo_entrp">   -887.69516822 </i>
    <i name="e_0_energy">   -887.70927671 </i>
   </energy>
  </scstep>
  <scstep>
   <time name="dav">   10.72   10.72</time>
   <time name="total">   13.37   13.38</time>
   <energy>
    <i name="e_fr_energy">   -879.24009285 </i>
    <i name="e_wo_entrp">   -879.18204265 </i>
    <i name="e_0_energy">   -879.21106775 </i>
   </energy>
  </scstep>
  <scstep>
   <time name="dav">    9.83    9.84</time>
   <time name="total">   12.56   12.57</time>
   <energy>
    <i name="e_fr_energy">   -881.40476566 </i>
    <i name="e_wo_entrp">   -881.37834566 </i>
    <i name="e_0_energy">   -881.39155566 </i>
   </energy>
  </scstep>
  <scstep>
   <time name="dav">   10.12   10.13</time>
   <time name="total">   12.84   12.85</time>
   <energy>
    <i name="e_fr_energy">   -884.48693147 </i>
    <i name="e_wo_entrp">   -884.41567614 </i>
    <i name="e_0_energy">   -884.45130380 </i>
   </energy>
  </scstep>
  <scstep>
   <time name="dav">    9.36    9.36</time>
   <time name="total">   11.99   12.00</time>
   <energy>
    <i name="e_fr_energy">   -876.32443191 </i>
    <i name="e_wo_entrp">   -876.20143851 </i>
    <i name="e_0_energy">   -876.26293521 </i>
   </energy>
  </scstep>
  <scstep>
   <time name="dav">   10.14   10.14</time>
   <time name="total">   12.80   12.81</time>
   <energy>
    <i name="e_fr_energy">   -878.00831066 </i>
    <i name="e_wo_entrp">   -877.94190330 </i>
    <i name="e_0_energy">   -877.97510698 </i>
   </energy>
  </scstep>
  <scstep>
   <time name="dav">   10.30   10.30</time>
   <time name="total">   13.01   13.02</time>
   <energy>
    <i name="e_fr_energy">   -879.03328156 </i>
    <i name="e_wo_entrp">   -878.94841956 </i>
    <i name="e_0_energy">   -878.99085056 </i>
   </energy>
  </scstep>
  <scstep>
   <time name="dav">   10.86   10.86</time>
   <time name="total">   13.49   13.50</time>
   <energy>
    <i name="e_fr_energy">   -883.67827298 </i>
    <i name="e_wo_entrp">   -883.62467289 </i>
    <i name="e_0_energy">   -883.65147293 </i>
   </energy>
  </scstep>
  <scstep>
   <time name="dav">   11.04   11.04</time>
   <time name="total">   13.67   13.68</time>
   <energy>
    <i name="e_fr_energy">   -885.50082190 </i>
    <i name="e_wo_entrp">   -885.46413835 </i>
    <i name="e_0_energy">   -885.48248012 </i>
   </energy>
  </scstep>
  <scstep>
   <time name="dav">   10.67   10.68</time>
   <time name="total">   13.34   13.34</time>
   <energy>
    <i name="e_fr_energy">   -886.97910066 </i>
    <i name="e_wo_entrp">   -886.96422431 </i>
    <i name="e_0_energy">   -886.97166248 </i>
   </energy>
  </scstep>
  <scstep>
   <time name="dav">   10.96   10.97</time>
   <time name="total">   13.66   13.67</time>
   <energy>
    <i name="e_fr_energy">   -888.86557850 </i>
    <i name="e_wo_entrp">   -888.83811857 </i>
    <i name="e_0_energy">   -888.85184853 </i>
   </energy>
  </scstep>
  <scstep>
   <time name="dav">   10.69   10.70</time>
   <time name="total">   13.37   13.37</time>
   <energy>
    <i name="e_fr_energy">   -891.38136082 </i>
    <i name="e_wo_entrp">   -891.34694304 </i>
    <i name="e_0_energy">   -891.36415193 </i>
   </energy>
  </scstep>
  <scstep>
   <time name="dav">   10.59   10.60</time>
   <time name="total">   13.23   13.24</time>
   <energy>
    <i name="e_fr_energy">   -892.72308513 </i>
    <i name="e_wo_entrp">   -892.71231091 </i>
    <i name="e_0_energy">   -892.71769802 </i>
   </energy>
  </scstep>
  <scstep>
   <time name="dav">   10.71   10.72</time>
   <time name="total">   13.34   13.35</time>
   <energy>
    <i name="e_fr_energy">   -894.54472215 </i>
    <i name="e_wo_entrp">   -894.49780784 </i>
    <i name="e_0_energy">   -894.52126499 </i>
   </energy>
  </scstep>
  <scstep>
   <time name="dav">   10.49   10.50</time>
   <time name="total">   13.15   13.16</time>
   <energy>
    <i name="e_fr_energy">   -895.19263679 </i>
    <i name="e_wo_entrp">   -895.17828702 </i>
    <i name="e_0_energy">   -895.18546190 </i>
   </energy>
  </scstep>
  <scstep>
   <time name="dav">    9.16    9.17</time>
   <time name="total">   11.81   11.82</time>
   <energy>
    <i name="e_fr_energy">   -895.20840277 </i>
    <i name="e_wo_entrp">   -895.19229284 </i>
    <i name="e_0_energy">   -895.20034780 </i>
   </energy>
  </scstep>
  <scstep>
   <time name="dav">   12.08   12.09</time>
   <time name="total">   14.73   14.74</time>
   <energy>
    <i name="e_fr_energy">   -895.40615639 </i>
    <i name="e_wo_entrp">   -895.37568421 </i>
    <i name="e_0_energy">   -895.39092030 </i>
   </energy>
  </scstep>
  <scstep>
   <time name="dav">   10.35   10.36</time>
   <time name="total">   13.05   13.05</time>
   <energy>
    <i name="e_fr_energy">   -895.25534583 </i>
    <i name="e_wo_entrp">   -895.22558683 </i>
    <i name="e_0_energy">   -895.24046633 </i>
   </energy>
  </scstep>
  <scstep>
   <time name="dav">    9.96    9.96</time>
   <time name="total">   12.58   12.59</time>
   <energy>
    <i name="e_fr_energy">   -895.27471164 </i>
    <i name="e_wo_entrp">   -895.25553736 </i>
    <i name="e_0_energy">   -895.26512450 </i>
   </energy>
  </scstep>
  <scstep>
   <time name="dav">   10.46   10.46</time>
   <time name="total">   13.15   13.16</time>
   <energy>
    <i name="e_fr_energy">   -895.23912156 </i>
    <i name="e_wo_entrp">   -895.22873689 </i>
    <i name="e_0_energy">   -895.23392923 </i>
   </energy>
  </scstep>
  <scstep>
   <time name="dav">    9.03    9.04</time>
   <time name="total">   11.71   11.72</time>
   <energy>
    <i name="e_fr_energy">   -895.38074202 </i>
    <i name="e_wo_entrp">   -895.36830132 </i>
    <i name="e_0_energy">   -895.37452167 </i>
   </energy>
  </scstep>
  <scstep>
   <time name="dav">    9.82    9.82</time>
   <time name="total">   12.47   12.48</time>
   <energy>
    <i name="e_fr_energy">   -896.63942560 </i>
    <i name="e_wo_entrp">   -896.62774215 </i>
    <i name="e_0_energy">   -896.63358387 </i>
   </energy>
  </scstep>
  <scstep>
   <time name="dav">    9.89    9.89</time>
   <time name="total">   12.55   12.56</time>
   <energy>
    <i name="e_fr_energy">   -900.07643360 </i>
    <i name="e_wo_entrp">   -899.98033634 </i>
    <i name="e_0_energy">   -900.02838497 </i>
   </energy>
  </scstep>
  <scstep>
   <time name="dav">   10.56   10.57</time>
   <time name="total">   13.19   13.20</time>
   <energy>
    <i name="e_fr_energy">   -900.75409134 </i>
    <i name="e_wo_entrp">   -900.65095428 </i>
    <i name="e_0_energy">   -900.70252281 </i>
   </energy>
  </scstep>
  <scstep>
   <time name="dav">    9.99   10.00</time>
   <time name="total">   12.61   12.62</time>
   <energy>
    <i name="e_fr_energy">   -902.35976889 </i>
    <i name="e_wo_entrp">   -902.25679866 </i>
    <i name="e_0_energy">   -902.30828378 </i>
   </energy>
  </scstep>
  <scstep>
   <time name="dav">   10.38   10.39</time>
   <time name="total">   13.08   13.09</time>
   <energy>
    <i name="e_fr_energy">   -903.24885378 </i>
    <i name="e_wo_entrp">   -903.19188736 </i>
    <i name="e_0_energy">   -903.22037057 </i>
   </energy>
  </scstep>
  <scstep>
   <time name="dav">    9.89    9.89</time>
   <time name="total">   12.56   12.56</time>
   <energy>
    <i name="e_fr_energy">   -904.92640564 </i>
    <i name="e_wo_entrp">   -904.86631979 </i>
    <i name="e_0_energy">   -904.89636272 </i>
   </energy>
  </scstep>
  <scstep>
   <time name="dav">   10.09   10.10</time>
   <time name="total">   12.76   12.77</time>
   <energy>
    <i name="e_fr_energy">   -906.50983821 </i>
    <i name="e_wo_entrp">   -906.45328283 </i>
    <i name="e_0_energy">   -906.48156052 </i>
   </energy>
  </scstep>
  <scstep>
   <time name="dav">    9.62    9.63</time>
   <time name="total">   12.26   12.26</time>
   <energy>
    <i name="e_fr_energy">   -907.75122696 </i>
    <i name="e_wo_entrp">   -907.69759515 </i>
    <i name="e_0_energy">   -907.72441106 </i>
   </energy>
  </scstep>
  <scstep>
   <time name="dav">    9.70    9.70</time>
   <time name="total">   12.33   12.34</time>
   <energy>
    <i name="e_fr_energy">   -908.87311316 </i>
    <i name="e_wo_entrp">   -908.83774941 </i>
    <i name="e_0_energy">   -908.85543129 </i>
   </energy>
  </scstep>
  <scstep>
   <time name="dav">   10.00   10.00</time>
   <time name="total">   12.67   12.68</time>
   <energy>
    <i name="e_fr_energy">   -909.79903454 </i>
    <i name="e_wo_entrp">   -909.76519041 </i>
    <i name="e_0_energy">   -909.78211247 </i>
   </energy>
  </scstep>
  <scstep>
   <time name="dav">    9.52    9.53</time>
   <time name="total">   12.18   12.19</time>
   <energy>
    <i name="e_fr_energy">   -910.18413314 </i>
    <i name="e_wo_entrp">   -910.15381247 </i>
    <i name="e_0_energy">   -910.16897281 </i>
   </energy>
  </scstep>
  <scstep>
   <time name="dav">   10.45   10.46</time>
   <time name="total">   13.13   13.14</time>
   <energy>
    <i name="e_fr_energy">   -910.63697459 </i>
    <i name="e_wo_entrp">   -910.60860455 </i>
    <i name="e_0_energy">   -910.62278957 </i>
   </energy>
  </scstep>
  <scstep>
   <time name="dav">    9.89    9.90</time>
   <time name="total">   12.48   12.49</time>
   <energy>
    <i name="e_fr_energy">   -911.01276029 </i>
    <i name="e_wo_entrp">   -910.99180055 </i>
    <i name="e_0_energy">   -911.00228042 </i>
   </energy>
  </scstep>
  <scstep>
   <time name="dav">    9.69    9.69</time>
   <time name="total">   12.42   12.42</time>
   <energy>
    <i name="e_fr_energy">   -911.13900774 </i>
    <i name="e_wo_entrp">   -911.11997620 </i>
    <i name="e_0_energy">   -911.12949197 </i>
   </energy>
  </scstep>
  <scstep>
   <time name="dav">    9.80    9.81</time>
   <time name="total">   12.45   12.46</time>
   <energy>
    <i name="e_fr_energy">   -911.35948883 </i>
    <i name="e_wo_entrp">   -911.34612931 </i>
    <i name="e_0_energy">   -911.35280907 </i>
   </energy>
  </scstep>
  <scstep>
   <time name="dav">   10.66   10.67</time>
   <time name="total">   13.25   13.26</time>
   <energy>
    <i name="e_fr_energy">   -911.50380188 </i>
    <i name="e_wo_entrp">   -911.46588857 </i>
    <i name="e_0_energy">   -911.48484523 </i>
   </energy>
  </scstep>
  <scstep>
   <time name="dav">   10.86   10.86</time>
   <time name="total">   13.48   13.49</time>
   <energy>
    <i name="e_fr_energy">   -911.50430878 </i>
    <i name="e_wo_entrp">   -911.47399238 </i>
    <i name="e_0_energy">   -911.48915058 </i>
   </energy>
  </scstep>
  <scstep>
   <time name="dav">    9.90    9.90</time>
   <time name="total">   12.60   12.61</time>
   <energy>
    <i name="e_fr_energy">   -911.50345655 </i>
    <i name="e_wo_entrp">   -911.47368112 </i>
    <i name="e_0_energy">   -911.48856884 </i>
   </energy>
  </scstep>
  <scstep>
   <time name="dav">   11.22   11.23</time>
   <time name="total">   13.89   13.90</time>
   <energy>
    <i name="e_fr_energy">   -911.51234048 </i>
    <i name="e_wo_entrp">   -911.48261039 </i>
    <i name="e_0_energy">   -911.49747544 </i>
   </energy>
  </scstep>
  <scstep>
   <time name="dav">   10.76   10.77</time>
   <time name="total">   13.41   13.42</time>
   <energy>
    <i name="e_fr_energy">   -911.55365241 </i>
    <i name="e_wo_entrp">   -911.51241046 </i>
    <i name="e_0_energy">   -911.53303143 </i>
   </energy>
  </scstep>
  <scstep>
   <time name="dav">   10.96   10.96</time>
   <time name="total">   13.59   13.60</time>
   <energy>
    <i name="e_fr_energy">   -911.78319026 </i>
    <i name="e_wo_entrp">   -911.73676637 </i>
    <i name="e_0_energy">   -911.75997831 </i>
   </energy>
  </scstep>
  <scstep>
   <time name="dav">   10.09   10.09</time>
   <time name="total">   12.75   12.76</time>
   <energy>
    <i name="e_fr_energy">   -911.69461043 </i>
    <i name="e_wo_entrp">   -911.65585141 </i>
    <i name="e_0_energy">   -911.67523092 </i>
   </energy>
  </scstep>
  <scstep>
   <time name="dav">   10.95   10.95</time>
   <time name="total">   13.60   13.60</time>
   <energy>
    <i name="e_fr_energy">   -911.55768665 </i>
    <i name="e_wo_entrp">   -911.53686175 </i>
    <i name="e_0_energy">   -911.54727420 </i>
   </energy>
  </scstep>
  <scstep>
   <time name="dav">   10.57   10.58</time>
   <time name="total">   13.22   13.23</time>
   <energy>
    <i name="e_fr_energy">   -911.46419145 </i>
    <i name="e_wo_entrp">   -911.45382701 </i>
    <i name="e_0_energy">   -911.45900923 </i>
   </energy>
  </scstep>
  <scstep>
   <time name="dav">   10.55   10.56</time>
   <time name="total">   13.16   13.17</time>
   <energy>
    <i name="e_fr_energy">   -911.48329452 </i>
    <i name="e_wo_entrp">   -911.43615933 </i>
    <i name="e_0_energy">   -911.45972692 </i>
   </energy>
  </scstep>
  <scstep>
   <time name="dav">    9.61    9.61</time>
   <time name="total">   12.24   12.24</time>
   <energy>
    <i name="e_fr_energy">   -911.51165775 </i>
    <i name="e_wo_entrp">   -911.43712259 </i>
    <i name="e_0_energy">   -911.47439017 </i>
   </energy>
  </scstep>
  <scstep>
   <time name="dav">   10.86   10.87</time>
   <time name="total">   13.55   13.56</time>
   <energy>
    <i name="e_fr_energy">   -911.51872786 </i>
    <i name="e_wo_entrp">   -911.46133952 </i>
    <i name="e_0_energy">   -911.49003369 </i>
   </energy>
  </scstep>
  <scstep>
   <time name="dav">    9.99   10.00</time>
   <time name="total">   12.61   12.61</time>
   <energy>
    <i name="e_fr_energy">   -911.74952411 </i>
    <i name="e_wo_entrp">   -911.67189711 </i>
    <i name="e_0_energy">   -911.71071061 </i>
   </energy>
  </scstep>
  <scstep>
   <time name="dav">   10.27   10.28</time>
   <time name="total">   12.92   12.93</time>
   <energy>
    <i name="e_fr_energy">   -911.97610617 </i>
    <i name="e_wo_entrp">   -911.90213061 </i>
    <i name="e_0_energy">   -911.93911839 </i>
   </energy>
  </scstep>
  <scstep>
   <time name="dav">   10.18   10.19</time>
   <time name="total">   12.84   12.85</time>
   <energy>
    <i name="e_fr_energy">   -911.95790565 </i>
    <i name="e_wo_entrp">   -911.87979832 </i>
    <i name="e_0_energy">   -911.91885198 </i>
   </energy>
  </scstep>
  <scstep>
   <time name="dav">   10.36   10.36</time>
   <time name="total">   13.04   13.05</time>
   <energy>
    <i name="e_fr_energy">   -911.97418576 </i>
    <i name="e_wo_entrp">   -911.89355318 </i>
    <i name="e_0_energy">   -911.93386947 </i>
   </energy>
  </scstep>
  <scstep>
   <time name="dav">   10.18   10.19</time>
   <time name="total">   12.84   12.84</time>
   <energy>
    <i name="e_fr_energy">   -911.99615165 </i>
    <i name="e_wo_entrp">   -911.92980745 </i>
    <i name="e_0_energy">   -911.96297955 </i>
   </energy>
  </scstep>
  <scstep>
   <time name="dav">   10.46   10.47</time>
   <time name="total">   13.12   13.13</time>
   <energy>
    <i name="e_fr_energy">   -911.99067135 </i>
    <i name="e_wo_entrp">   -911.93932456 </i>
    <i name="e_0_energy">   -911.96499795 </i>
   </energy>
  </scstep>
  <scstep>
   <time name="dav">    9.71    9.72</time>
   <time name="total">   12.39   12.39</time>
   <energy>
    <i name="e_fr_energy">   -912.05525933 </i>
    <i name="e_wo_entrp">   -912.00190267 </i>
    <i name="e_0_energy">   -912.02858100 </i>
   </energy>
  </scstep>
  <scstep>
   <time name="dav">   10.09   10.09</time>
   <time name="total">   12.79   12.80</time>
   <energy>
    <i name="e_fr_energy">   -912.10410555 </i>
    <i name="e_wo_entrp">   -912.05343361 </i>
    <i name="e_0_energy">   -912.07876958 </i>
   </energy>
  </scstep>
  <scstep>
   <time name="dav">   10.29   10.29</time>
   <time name="total">   12.97   12.98</time>
   <energy>
    <i name="e_fr_energy">   -912.18181095 </i>
    <i name="e_wo_entrp">   -912.12904617 </i>
    <i name="e_0_energy">   -912.15542856 </i>
   </energy>
  </scstep>
  <scstep>
   <time name="dav">    9.61    9.61</time>
   <time name="total">   12.27   12.27</time>
   <energy>
    <i name="e_fr_energy">   -912.21560240 </i>
    <i name="e_wo_entrp">   -912.16538685 </i>
    <i name="e_0_energy">   -912.19049462 </i>
   </energy>
  </scstep>
  <scstep>
   <time name="dav">   10.77   10.78</time>
   <time name="total">   13.42   13.43</time>
   <energy>
    <i name="e_fr_energy">   -912.24198260 </i>
    <i name="e_wo_entrp">   -912.20105106 </i>
    <i name="e_0_energy">   -912.22151683 </i>
   </energy>
  </scstep>
  <scstep>
   <time name="dav">    9.70    9.71</time>
   <time name="total">   12.38   12.39</time>
   <energy>
    <i name="e_fr_energy">   -912.27047001 </i>
    <i name="e_wo_entrp">   -912.23596725 </i>
    <i name="e_0_energy">   -912.25321863 </i>
   </energy>
  </scstep>
  <scstep>
   <time name="dav">   10.09   10.09</time>
   <time name="total">   12.69   12.70</time>
   <energy>
    <i name="e_fr_energy">   -912.29133253 </i>
    <i name="e_wo_entrp">   -912.26376934 </i>
    <i name="e_0_energy">   -912.27755093 </i>
   </energy>
  </scstep>
  <scstep>
   <time name="dav">    9.70    9.70</time>
   <time name="total">   12.37   12.38</time>
   <energy>
    <i name="e_fr_energy">   -912.29521520 </i>
    <i name="e_wo_entrp">   -912.26795761 </i>
    <i name="e_0_energy">   -912.28158640 </i>
   </energy>
  </scstep>
  <scstep>
   <time name="dav">   10.67   10.67</time>
   <time name="total">   13.34   13.35</time>
   <energy>
    <i name="e_fr_energy">   -912.29402344 </i>
    <i name="e_wo_entrp">   -912.26640515 </i>
    <i name="e_0_energy">   -912.28021429 </i>
   </energy>
  </scstep>
  <scstep>
   <time name="dav">    9.71    9.72</time>
   <time name="total">   12.38   12.39</time>
   <energy>
    <i name="e_fr_energy">   -912.30120545 </i>
    <i name="e_wo_entrp">   -912.27229574 </i>
    <i name="e_0_energy">   -912.28675060 </i>
   </energy>
  </scstep>
  <scstep>
   <time name="dav">    9.52    9.53</time>
   <time name="total">   12.14   12.14</time>
   <energy>
    <i name="e_fr_energy">   -912.31832343 </i>
    <i name="e_wo_entrp">   -912.28899260 </i>
    <i name="e_0_energy">   -912.30365802 </i>
   </energy>
  </scstep>
  <scstep>
   <time name="dav">    9.99   10.00</time>
   <time name="total">   12.61   12.61</time>
   <energy>
    <i name="e_fr_energy">   -912.32505530 </i>
    <i name="e_wo_entrp">   -912.29625034 </i>
    <i name="e_0_energy">   -912.31065282 </i>
   </energy>
  </scstep>
  <scstep>
   <time name="dav">    9.98    9.99</time>
   <time name="total">   12.59   12.60</time>
   <energy>
    <i name="e_fr_energy">   -912.32984013 </i>
    <i name="e_wo_entrp">   -912.30149432 </i>
    <i name="e_0_energy">   -912.31566723 </i>
   </energy>
  </scstep>
  <scstep>
   <time name="dav">   10.55   10.56</time>
   <time name="total">   13.21   13.22</time>
   <energy>
    <i name="e_fr_energy">   -912.33287045 </i>
    <i name="e_wo_entrp">   -912.30418954 </i>
    <i name="e_0_energy">   -912.31852999 </i>
   </energy>
  </scstep>
  <scstep>
   <time name="dav">   10.08   10.08</time>
   <time name="total">   12.72   12.73</time>
   <energy>
    <i name="e_fr_energy">   -912.33557951 </i>
    <i name="e_wo_entrp">   -912.30741780 </i>
    <i name="e_0_energy">   -912.32149866 </i>
   </energy>
  </scstep>
  <scstep>
   <time name="dav">   10.36   10.37</time>
   <time name="total">   12.97   12.98</time>
   <energy>
    <i name="e_fr_energy">   -912.33727092 </i>
    <i name="e_wo_entrp">   -912.30965989 </i>
    <i name="e_0_energy">   -912.32346540 </i>
   </energy>
  </scstep>
  <scstep>
   <time name="dav">   10.18   10.18</time>
   <time name="total">   12.86   12.87</time>
   <energy>
    <i name="e_fr_energy">   -912.33854231 </i>
    <i name="e_wo_entrp">   -912.31117678 </i>
    <i name="e_0_energy">   -912.32485954 </i>
   </energy>
  </scstep>
  <scstep>
   <time name="dav">   10.18   10.19</time>
   <time name="total">   12.84   12.84</time>
   <energy>
    <i name="e_fr_energy">   -912.33964773 </i>
    <i name="e_wo_entrp">   -912.31209907 </i>
    <i name="e_0_energy">   -912.32587340 </i>
   </energy>
  </scstep>
  <scstep>
   <time name="dav">   10.27   10.28</time>
   <time name="total">   12.94   12.95</time>
   <energy>
    <i name="e_fr_energy">   -912.34023168 </i>
    <i name="e_wo_entrp">   -912.31259819 </i>
    <i name="e_0_energy">   -912.32641493 </i>
   </energy>
  </scstep>
  <scstep>
   <time name="dav">    9.61    9.62</time>
   <time name="total">   12.28   12.29</time>
   <energy>
    <i name="e_fr_energy">   -912.34075536 </i>
    <i name="e_wo_entrp">   -912.31308347 </i>
    <i name="e_0_energy">   -912.32691941 </i>
   </energy>
  </scstep>
  <scstep>
   <time name="dav">    9.99    9.99</time>
   <time name="total">   12.65   12.66</time>
   <energy>
    <i name="e_fr_energy">   -912.34148659 </i>
    <i name="e_wo_entrp">   -912.31375633 </i>
    <i name="e_0_energy">   -912.32762146 </i>
   </energy>
  </scstep>
  <scstep>
   <time name="dav">    9.81    9.81</time>
   <time name="total">   11.18   11.19</time>
   <energy>
    <i name="alphaZ">   1939.80149885 </i>
    <i name="ewald"> 207094.69905944 </i>
    <i name="hartreedc">-279549.45488247 </i>
    <i name="XCdc">   2876.71482176 </i>
    <i name="pawpsdc">  75227.15802614 </i>
    <i name="pawaedc"> -74382.67007323 </i>
    <i name="eentropy">     -0.02782218 </i>
    <i name="bandstr"> -12748.70273253 </i>
    <i name="atom">  78630.14029091 </i>
[...]
       <r>   -13.8831     0.0000   226.0000 </r>
       <r>   -13.7494     0.0000   226.0000 </r>
       <r>   -13.6158     0.0000   226.0000 </r>
       <r>   -13.4822     0.0000   226.0000 </r>
       <r>   -13.3486     0.0000   226.0000 </r>
       <r>   -13.2150     0.0000   226.0000 </r>
       <r>   -13.0814     0.0000   226.0000 </r>
       <r>   -12.9478     0.0000   226.0000 </r>
       <r>   -12.8142     0.0000   226.0000 </r>
       <r>   -12.6806     0.0000   226.0000 </r>
       <r>   -12.5470     0.0000   226.0000 </r>
       <r>   -12.4134     0.0000   226.0000 </r>
       <r>   -12.2798     0.0000   226.0000 </r>
       <r>   -12.1461     0.0000   226.0000 </r>
       <r>   -12.0125     0.0000   226.0000 </r>
       <r>   -11.8789     0.0000   226.0000 </r>
       <r>   -11.7453     0.0000   226.0000 </r>
       <r>   -11.6117     0.0000   226.0000 </r>
       <r>   -11.4781     0.0000   226.0000 </r>
       <r>   -11.3445     0.0000   226.0000 </r>
       <r>   -11.2109     0.0000   226.0000 </r>
       <r>   -11.0773     0.0000   226.0000 </r>
       <r>   -10.9437     0.0000   226.0000 </r>
       <r>   -10.8101     0.0000   226.0000 </r>
       <r>   -10.6765     0.0000   226.0000 </r>
       <r>   -10.5428     0.0000   226.0000 </r>
       <r>   -10.4092     0.0000   226.0000 </r>
       <r>   -10.2756     0.0000   226.0000 </r>
       <r>   -10.1420     0.0000   226.0000 </r>
       <r>   -10.0084     2.4183   226.3231 </r>
       <r>    -9.8748    12.5237   227.9964 </r>
       <r>    -9.7412    11.2011   229.4929 </r>
       <r>    -9.6076    16.6673   231.7198 </r>
       <r>    -9.4740    48.0302   238.1371 </r>
       <r>    -9.3404    14.0329   240.0120 </r>
       <r>    -9.2068    13.4700   241.8117 </r>
       <r>    -9.0731    14.2450   243.7150 </r>
       <r>    -8.9395    15.7359   245.8174 </r>
       <r>    -8.8059     1.3666   246.0000 </r>
       <r>    -8.6723     0.0000   246.0000 </r>
       <r>    -8.5387     0.0000   246.0000 </r>
       <r>    -8.4051     0.0000   246.0000 </r>
       <r>    -8.2715     0.0000   246.0000 </r>
       <r>    -8.1379     0.0000   246.0000 </r>
       <r>    -8.0043     0.0000   246.0000 </r>
       <r>    -7.8707     0.0076   246.0010 </r>
       <r>    -7.7371     6.8886   246.9214 </r>
       <r>    -7.6035     8.0540   247.9975 </r>
       <r>    -7.4698     0.0189   248.0000 </r>
       <r>    -7.3362     0.0013   248.0002 </r>
       <r>    -7.2026     5.8688   248.7843 </r>
       <r>    -7.0690     9.0873   249.9984 </r>
       <r>    -6.9354     0.0117   250.0000 </r>
       <r>    -6.8018     0.0000   250.0000 </r>
       <r>    -6.6682     0.0005   250.0001 </r>
       <r>    -6.5346     6.2097   250.8297 </r>
       <r>    -6.4010    22.3978   253.8223 </r>
       <r>    -6.2674    16.4111   256.0149 </r>
       <r>    -6.1338    14.6714   257.9752 </r>
       <r>    -6.0001    56.7085   265.5519 </r>
       <r>    -5.8665    62.6498   273.9225 </r>
       <r>    -5.7329    46.2987   280.1084 </r>
       <r>    -5.5993    89.2324   292.0306 </r>
       <r>    -5.4657    80.4924   302.7851 </r>
       <r>    -5.3321    67.0920   311.7491 </r>
       <r>    -5.1985    78.5820   322.2484 </r>
       <r>    -5.0649    37.8108   327.3002 </r>
       <r>    -4.9313    29.1614   331.1964 </r>
       <r>    -4.7977    43.1627   336.9633 </r>
       <r>    -4.6641    55.0494   344.3184 </r>
       <r>    -4.5305    63.4883   352.8010 </r>
       <r>    -4.3968    42.6514   358.4996 </r>
       <r>    -4.2632    89.7329   370.4887 </r>
       <r>    -4.1296    49.5450   377.1083 </r>
       <r>    -3.9960    99.8989   390.4556 </r>
       <r>    -3.8624    94.0183   403.0173 </r>
       <r>    -3.7288   118.6040   418.8638 </r>
       <r>    -3.5952   102.9615   432.6204 </r>
       <r>    -3.4616    85.5355   444.0486 </r>
       <r>    -3.3280   114.5898   459.3588 </r>
       <r>    -3.1944    86.4062   470.9034 </r>
       <r>    -3.0608    64.0369   479.4593 </r>
       <r>    -2.9272    60.9658   487.6049 </r>
       <r>    -2.7935     2.9573   488.0000 </r>
       <r>    -2.6599     0.0000   488.0000 </r>
       <r>    -2.5263     0.0000   488.0000 </r>
       <r>    -2.3927     5.5578   488.7426 </r>
       <r>    -2.2591   104.1509   502.6580 </r>
       <r>    -2.1255   102.9623   516.4147 </r>
       <r>    -1.9919    72.5692   526.1106 </r>
       <r>    -1.8583    14.1737   528.0043 </r>
       <r>    -1.7247     7.4265   528.9965 </r>
       <r>    -1.5911    15.1758   531.0242 </r>
       <r>    -1.4575     7.2881   531.9979 </r>
       <r>    -1.3238     0.0156   532.0000 </r>
       <r>    -1.1902     0.0000   532.0000 </r>
       <r>    -1.0566     0.0000   532.0000 </r>
       <r>    -0.9230     0.0000   532.0000 </r>
       <r>    -0.7894     0.1706   532.0228 </r>
       <r>    -0.6558    38.1491   537.1198 </r>
       <r>    -0.5222   189.2015   562.3988 </r>
       <r>    -0.3886   355.4512   609.8901 </r>
       <r>    -0.2550   343.9353   655.8428 </r>
       <r>    -0.1214   120.7873   671.9811 </r>
       <r>     0.0122     0.1418   672.0000 </r>
       <r>     0.1458     0.0000   672.0000 </r>
       <r>     0.2795     0.0000   672.0000 </r>
       <r>     0.4131     0.0000   672.0000 </r>
       <r>     0.5467     0.0000   672.0000 </r>
       <r>     0.6803     0.0000   672.0000 </r>
       <r>     0.8139     0.0000   672.0000 </r>
       <r>     0.9475     0.0000   672.0000 </r>
       <r>     1.0811     0.0000   672.0000 </r>
       <r>     1.2147     0.0000   672.0000 </r>
       <r>     1.3483     0.0000   672.0000 </r>
       <r>     1.4819     0.0000   672.0000 </r>
       <r>     1.6155     0.0000   672.0000 </r>
      </set>
     </set>
    </array>
   </total>
  </dos>
 </calculation>
 <structure name="finalpos" >
  <crystal>
   <varray name="basis" >
    <v>      15.46430016       0.00000000       0.00000000 </v>
    <v>      -7.73215008      13.39247679       0.00000000 </v>
    <v>       0.00000000       0.00000000      21.04820061 </v>
   </varray>
   <i name="volume">   4359.19349823 </i>
   <varray name="rec_basis" >
    <v>       0.06466507       0.03733439       0.00000000 </v>
    <v>       0.00000000       0.07466879       0.00000000 </v>
    <v>       0.00000000       0.00000000       0.04751000 </v>
   </varray>
  </crystal>
  <varray name="positions" >
   <v>       0.00091234       0.99975203       0.46068647 </v>
   <v>       0.16667000       0.08333000       0.30996000 </v>
   <v>       0.24516650       0.99516559       0.45952687 </v>
   <v>       0.41667000       0.08333000       0.30996000 </v>
   <v>       0.49705236       0.00168469       0.46221136 </v>
   <v>       0.66667000       0.08333000       0.30996000 </v>
   <v>       0.75658698       0.00319889       0.46020592 </v>
   <v>       0.91667000       0.08333000       0.30996000 </v>
   <v>       0.99922653       0.24978427       0.46052064 </v>
   <v>       0.16667000       0.33333000       0.30996000 </v>
   <v>       0.24732667       0.25134121       0.46278955 </v>
   <v>       0.41667000       0.33333000       0.30996000 </v>
   <v>       0.50294859       0.24839882       0.46418349 </v>
   <v>       0.66667000       0.33333000       0.30996000 </v>
   <v>       0.75100658       0.24968271       0.46023650 </v>
   <v>       0.91667000       0.33333000       0.30996000 </v>
   <v>       0.00103362       0.49978900       0.46067992 </v>
   <v>       0.16667000       0.58333000       0.30996000 </v>
   <v>       0.24493031       0.49460147       0.45943010 </v>
   <v>       0.41667000       0.58333000       0.30996000 </v>
   <v>       0.49686665       0.50186000       0.46202233 </v>
   <v>       0.66667000       0.58333000       0.30996000 </v>
   <v>       0.75700772       0.50332635       0.46011576 </v>
   <v>       0.91667000       0.58333000       0.30996000 </v>
   <v>       0.99919041       0.74994360       0.46046635 </v>
   <v>       0.16667000       0.83333000       0.30996000 </v>
   <v>       0.24700640       0.75158006       0.46251184 </v>
   <v>       0.41667000       0.83333000       0.30996000 </v>
   <v>       0.50311492       0.74875502       0.46422294 </v>
   <v>       0.66667000       0.83333000       0.30996000 </v>
   <v>       0.75090216       0.74973139       0.46027293 </v>
   <v>       0.91667000       0.83333000       0.30996000 </v>
   <v>       0.08333000       0.16667000       0.27247000 </v>
   <v>       0.16688559       0.08376026       0.42243092 </v>
   <v>       0.08316852       0.16680943       0.49796597 </v>
   <v>       0.00000000       0.00000000       0.34745000 </v>
   <v>       0.16667000       0.08333000       0.19748000 </v>
   <v>       0.20922897       0.06896203       0.60583397 </v>
   <v>       0.33333000       0.16667000       0.27247000 </v>
   <v>       0.41700823       0.08681865       0.42330234 </v>
   <v>       0.32499309       0.15778291       0.50106889 </v>
   <v>       0.25000000       0.00000000       0.34745000 </v>
   <v>       0.41667000       0.08333000       0.19748000 </v>
   <v>       0.58333000       0.16667000       0.27247000 </v>
   <v>       0.66724959       0.08225270       0.42231059 </v>
   <v>       0.58591304       0.16578384       0.49565151 </v>
   <v>       0.50000000       0.00000000       0.34745000 </v>
   <v>       0.66667000       0.08333000       0.19748000 </v>
   <v>       0.67875461       0.04286897       0.60768505 </v>
   <v>       0.83333000       0.16667000       0.27247000 </v>
   <v>       0.91830497       0.08407008       0.42176084 </v>
   <v>       0.83577760       0.16791182       0.49686955 </v>
   <v>       0.75000000       0.00000000       0.34745000 </v>
   <v>       0.91667000       0.08333000       0.19748000 </v>
   <v>       0.08333000       0.41667000       0.27247000 </v>
   <v>       0.16284720       0.33056071       0.42134264 </v>
   <v>       0.08110367       0.41433523       0.49693778 </v>
   <v>       0.00000000       0.25000000       0.34745000 </v>
   <v>       0.16667000       0.33333000       0.19748000 </v>
   <v>       0.33333000       0.41667000       0.27247000 </v>
   <v>       0.42027399       0.33245657       0.42708211 </v>
   <v>       0.32742967       0.41704241       0.49094122 </v>
   <v>       0.25000000       0.25000000       0.34745000 </v>
   <v>       0.41667000       0.33333000       0.19748000 </v>
   <v>       0.47610284       0.27461549       0.57372474 </v>
   <v>       0.58333000       0.41667000       0.27247000 </v>
   <v>       0.66648835       0.33524812       0.42397075 </v>
   <v>       0.59482884       0.42740887       0.50386192 </v>
   <v>       0.50000000       0.25000000       0.34745000 </v>
   <v>       0.66667000       0.33333000       0.19748000 </v>
   <v>       0.83333000       0.41667000       0.27247000 </v>
   <v>       0.91616046       0.33289457       0.42165744 </v>
   <v>       0.83760347       0.41855987       0.49644748 </v>
   <v>       0.75000000       0.25000000       0.34745000 </v>
   <v>       0.91667000       0.33333000       0.19748000 </v>
   <v>       0.08333000       0.66667000       0.27247000 </v>
   <v>       0.16717040       0.58384312       0.42244680 </v>
   <v>       0.08288320       0.66674716       0.49793158 </v>
   <v>       0.00000000       0.50000000       0.34745000 </v>
   <v>       0.16667000       0.58333000       0.19748000 </v>
   <v>       0.20574569       0.57218955       0.60999667 </v>
   <v>       0.33333000       0.66667000       0.27247000 </v>
   <v>       0.41635081       0.58689595       0.42354393 </v>
   <v>       0.32333092       0.65642700       0.50304476 </v>
   <v>       0.25000000       0.50000000       0.34745000 </v>
   <v>       0.41667000       0.58333000       0.19748000 </v>
   <v>       0.58333000       0.66667000       0.27247000 </v>
   <v>       0.66699261       0.58173198       0.42243231 </v>
   <v>       0.58540981       0.66550249       0.49561080 </v>
   <v>       0.50000000       0.50000000       0.34745000 </v>
   <v>       0.66667000       0.58333000       0.19748000 </v>
   <v>       0.67519651       0.54612395       0.61166908 </v>
   <v>       0.83333000       0.66667000       0.27247000 </v>
   <v>       0.91834618       0.58411003       0.42176535 </v>
   <v>       0.83545436       0.66770761       0.49703147 </v>
   <v>       0.75000000       0.50000000       0.34745000 </v>
   <v>       0.91667000       0.58333000       0.19748000 </v>
   <v>       0.08333000       0.91667000       0.27247000 </v>
   <v>       0.16287994       0.83070170       0.42133987 </v>
   <v>       0.08083579       0.91410848       0.49666094 </v>
   <v>       0.00000000       0.75000000       0.34745000 </v>
   <v>       0.16667000       0.83333000       0.19748000 </v>
   <v>       0.33333000       0.91667000       0.27247000 </v>
   <v>       0.41918484       0.83126422       0.42710767 </v>
   <v>       0.32791569       0.91745568       0.49068715 </v>
   <v>       0.25000000       0.75000000       0.34745000 </v>
   <v>       0.41667000       0.83333000       0.19748000 </v>
   <v>       0.47572991       0.77474711       0.57363576 </v>
   <v>       0.58333000       0.91667000       0.27247000 </v>
   <v>       0.66672943       0.83482158       0.42385210 </v>
   <v>       0.59387484       0.92605421       0.50197394 </v>
   <v>       0.50000000       0.75000000       0.34745000 </v>
   <v>       0.66667000       0.83333000       0.19748000 </v>
   <v>       0.83333000       0.91667000       0.27247000 </v>
   <v>       0.91589843       0.83265522       0.42162323 </v>
   <v>       0.83757349       0.91845432       0.49644101 </v>
   <v>       0.75000000       0.75000000       0.34745000 </v>
   <v>       0.91667000       0.83333000       0.19748000 </v>
   <v>       0.48571021       0.45178946       0.57797764 </v>
   <v>       0.29759751       0.76276573       0.57917129 </v>
   <v>       0.48738005       0.95073673       0.57923499 </v>
   <v>       0.53345047       0.38379314       0.68114546 </v>
   <v>       0.36614216       0.71298167       0.68136752 </v>
   <v>       0.54056466       0.88521726       0.68175523 </v>
   <v>       0.65772806       0.37041159       0.59529030 </v>
   <v>       0.38270165       0.59325208       0.59320801 </v>
   <v>       0.65716552       0.86562795       0.59243554 </v>
   <v>       0.29950010       0.26118219       0.58080966 </v>
   <v>       0.36536170       0.20474706       0.68195564 </v>
   <v>       0.38729822       0.09320609       0.58982028 </v>
   <v>       0.57959112       0.91854384       0.60354511 </v>
   <v>       0.32998065       0.67086034       0.60391773 </v>
   <v>       0.57831515       0.42146483       0.60434701 </v>
   <v>       0.33331787       0.16933079       0.60310535 </v>
  </varray>
  <varray name="selective"  type="logical" >
   <v type="logical" >  T  T  T </v>
   <v type="logical" >  F  F  F </v>
   <v type="logical" >  T  T  T </v>
   <v type="logical" >  F  F  F </v>
   <v type="logical" >  T  T  T </v>
   <v type="logical" >  F  F  F </v>
   <v type="logical" >  T  T  T </v>
   <v type="logical" >  F  F  F </v>
   <v type="logical" >  T  T  T </v>
   <v type="logical" >  F  F  F </v>
   <v type="logical" >  T  T  T </v>
   <v type="logical" >  F  F  F </v>
   <v type="logical" >  T  T  T </v>
   <v type="logical" >  F  F  F </v>
   <v type="logical" >  T  T  T </v>
   <v type="logical" >  F  F  F </v>
   <v type="logical" >  T  T  T </v>
   <v type="logical" >  F  F  F </v>
   <v type="logical" >  T  T  T </v>
   <v type="logical" >  F  F  F </v>
   <v type="logical" >  T  T  T </v>
   <v type="logical" >  F  F  F </v>
   <v type="logical" >  T  T  T </v>
   <v type="logical" >  F  F  F </v>
   <v type="logical" >  T  T  T </v>
   <v type="logical" >  F  F  F </v>
   <v type="logical" >  T  T  T </v>
   <v type="logical" >  F  F  F </v>
   <v type="logical" >  T  T  T </v>
   <v type="logical" >  F  F  F </v>
   <v type="logical" >  T  T  T </v>
   <v type="logical" >  F  F  F </v>
   <v type="logical" >  F  F  F </v>
   <v type="logical" >  T  T  T </v>
   <v type="logical" >  T  T  T </v>
   <v type="logical" >  F  F  F </v>
   <v type="logical" >  F  F  F </v>
   <v type="logical" >  T  T  T </v>
   <v type="logical" >  F  F  F </v>
   <v type="logical" >  T  T  T </v>
   <v type="logical" >  T  T  T </v>
   <v type="logical" >  F  F  F </v>
   <v type="logical" >  F  F  F </v>
   <v type="logical" >  F  F  F </v>
   <v type="logical" >  T  T  T </v>
   <v type="logical" >  T  T  T </v>
   <v type="logical" >  F  F  F </v>
   <v type="logical" >  F  F  F </v>
   <v type="logical" >  T  T  T </v>
   <v type="logical" >  F  F  F </v>
   <v type="logical" >  T  T  T </v>
   <v type="logical" >  T  T  T </v>
   <v type="logical" >  F  F  F </v>
   <v type="logical" >  F  F  F </v>
   <v type="logical" >  F  F  F </v>
   <v type="logical" >  T  T  T </v>
   <v type="logical" >  T  T  T </v>
   <v type="logical" >  F  F  F </v>
   <v type="logical" >  F  F  F </v>
   <v type="logical" >  F  F  F </v>
   <v type="logical" >  T  T  T </v>
   <v type="logical" >  T  T  T </v>
   <v type="logical" >  F  F  F </v>
   <v type="logical" >  F  F  F </v>
   <v type="logical" >  T  T  T </v>
   <v type="logical" >  F  F  F </v>
   <v type="logical" >  T  T  T </v>
   <v type="logical" >  T  T  T </v>
   <v type="logical" >  F  F  F </v>
   <v type="logical" >  F  F  F </v>
   <v type="logical" >  F  F  F </v>
   <v type="logical" >  T  T  T </v>
   <v type="logical" >  T  T  T </v>
   <v type="logical" >  F  F  F </v>
   <v type="logical" >  F  F  F </v>
   <v type="logical" >  F  F  F </v>
   <v type="logical" >  T  T  T </v>
   <v type="logical" >  T  T  T </v>
   <v type="logical" >  F  F  F </v>
   <v type="logical" >  F  F  F </v>
   <v type="logical" >  T  T  T </v>
   <v type="logical" >  F  F  F </v>
   <v type="logical" >  T  T  T </v>
   <v type="logical" >  T  T  T </v>
   <v type="logical" >  F  F  F </v>
   <v type="logical" >  F  F  F </v>
   <v type="logical" >  F  F  F </v>
   <v type="logical" >  T  T  T </v>
   <v type="logical" >  T  T  T </v>
   <v type="logical" >  F  F  F </v>
   <v type="logical" >  F  F  F </v>
   <v type="logical" >  T  T  T </v>
   <v type="logical" >  F  F  F </v>
   <v type="logical" >  T  T  T </v>
   <v type="logical" >  T  T  T </v>
   <v type="logical" >  F  F  F </v>
   <v type="logical" >  F  F  F </v>
   <v type="logical" >  F  F  F </v>
   <v type="logical" >  T  T  T </v>
   <v type="logical" >  T  T  T </v>
   <v type="logical" >  F  F  F </v>
   <v type="logical" >  F  F  F </v>
   <v type="logical" >  F  F  F </v>
   <v type="logical" >  T  T  T </v>
   <v type="logical" >  T  T  T </v>
   <v type="logical" >  F  F  F </v>
   <v type="logical" >  F  F  F </v>
   <v type="logical" >  T  T  T </v>
   <v type="logical" >  F  F  F </v>
   <v type="logical" >  T  T  T </v>
   <v type="logical" >  T  T  T </v>
   <v type="logical" >  F  F  F </v>
   <v type="logical" >  F  F  F </v>
   <v type="logical" >  F  F  F </v>
   <v type="logical" >  T  T  T </v>
   <v type="logical" >  T  T  T </v>
   <v type="logical" >  F  F  F </v>
   <v type="logical" >  F  F  F </v>
   <v type="logical" >  T  T  T </v>
   <v type="logical" >  T  T  T </v>
   <v type="logical" >  T  T  T </v>
   <v type="logical" >  T  T  T </v>
   <v type="logical" >  T  T  T </v>
   <v type="logical" >  T  T  T </v>
   <v type="logical" >  T  T  T </v>
   <v type="logical" >  T  T  T </v>
   <v type="logical" >  T  T  T </v>
   <v type="logical" >  T  T  T </v>
   <v type="logical" >  T  T  T </v>
   <v type="logical" >  T  T  T </v>
   <v type="logical" >  T  T  T </v>
   <v type="logical" >  T  T  T </v>
   <v type="logical" >  T  T  T </v>
   <v type="logical" >  T  T  T </v>
  </varray>
  <nose>
   <v>      -3.00000000       0.00000000       0.00010000       0.00010000 </v>
  </nose>
 </structure>
</modeling>
