<?xml version="1.0" encoding="ISO-8859-1"?>
<modeling>
 <generator>
  <i name="program" type="string">vasp </i>
  <i name="version" type="string">6.4.3  </i>
  <i name="subversion" type="string">19Mar24 (build Mar 01 2025 18:03:59) gamma-only                       parallel </i>
  <i name="platform" type="string">Shaheen </i>
  <i name="date" type="string">2025 04 30 </i>
  <i name="time" type="string">22:01:11 </i>
 </generator>
 <incar>
  <i type="int" name="ISTART">     1</i>
  <i type="string" name="PREC">Accurate   (Precision level: Normal or Accurate, set Accurate when perform structure lattice relaxation calculation)</i>
  <i type="logical" name="ADDGRID"> T  </i>
  <i type="int" name="ISPIN">     2</i>
  <i type="int" name="NELM">    90</i>
  <i type="int" name="NELMIN">     6</i>
  <i type="int" name="IBRION">     2</i>
  <i name="EDIFF">      0.00000100</i>
  <i name="EDIFFG">     -0.02000000</i>
  <i type="int" name="NSW">   300</i>
  <i type="int" name="ISIF">     2</i>
  <i name="ENCUT">    520.00000000</i>
  <v name="MAGMOM">      1.00000000      1.00000000      1.00000000      1.00000000      1.00000000      1.00000000      1.00000000      1.00000000      1.00000000      1.00000000      1.00000000      1.00000000      1.00000000      1.00000000      1.00000000      1.00000000      1.00000000      1.00000000      1.00000000      1.00000000
      1.00000000      1.00000000      1.00000000      1.00000000      1.00000000      1.00000000      1.00000000      1.00000000      1.00000000      1.00000000      1.00000000      1.00000000      0.60000000      0.60000000      0.60000000      0.60000000      0.60000000      0.60000000      0.60000000      0.60000000
      0.60000000      0.60000000      0.60000000      0.60000000      0.60000000      0.60000000      0.60000000      0.60000000      0.60000000      0.60000000      0.60000000      0.60000000      0.60000000      0.60000000      0.60000000      0.60000000      0.60000000      0.60000000      0.60000000      0.60000000
      0.60000000      0.60000000      0.60000000      0.60000000      0.60000000      0.60000000      0.60000000      0.60000000      0.60000000      0.60000000      0.60000000      0.60000000      0.60000000      0.60000000      0.60000000      0.60000000      0.60000000      0.60000000      0.60000000      0.60000000
      0.60000000      0.60000000      0.60000000      0.60000000      0.60000000      0.60000000      0.60000000      0.60000000      0.60000000      0.60000000      0.60000000      0.60000000      0.60000000      0.60000000      0.60000000      0.60000000      0.60000000      0.60000000      0.60000000      0.60000000
      0.60000000      0.60000000      0.60000000      0.60000000      0.60000000      0.60000000      0.60000000      0.60000000      0.60000000      0.60000000      0.60000000      0.60000000      0.60000000      0.60000000      0.60000000      0.60000000      0.60000000      0.60000000      0.60000000      0.60000000
      0.60000000      0.60000000      0.60000000      0.60000000      0.60000000      0.60000000      0.60000000      0.60000000      0.60000000      0.60000000      0.60000000      0.60000000      0.60000000      0.60000000</v>
  <i type="logical" name="LREAL"> F  </i>
  <i type="int" name="ISMEAR">     0</i>
  <i name="SIGMA">      0.05000000</i>
  <i type="int" name="LMAXMIX">     6</i>
  <i type="logical" name="LWAVE"> F  </i>
  <i type="logical" name="LCHARG"> F  </i>
  <i type="logical" name="LASPH"> T  </i>
  <i type="logical" name="LDAU"> T  </i>
  <i type="int" name="LDAUTYPE">     2</i>
  <v type="int" name="LDAUL">     3    -1     2</v>
  <v name="LDAUU">      5.00000000      0.00000000      2.00000000</v>
  <v name="LDAUJ">      0.00000000      0.00000000      0.00000000</v>
 </incar>
 <primitive_cell>
  <structure name="primitive_cell" >
   <crystal>
    <varray name="basis" >
     <v>      15.46430016       0.00000000       0.00000000 </v>
     <v>      -7.73215008      13.39247679       0.00000000 </v>
     <v>       0.00000000       0.00000000      21.04820061 </v>
    </varray>
    <i name="volume">   4359.19349823 </i>
    <varray name="rec_basis" >
     <v>       0.06466507       0.03733439       0.00000000 </v>
     <v>       0.00000000       0.07466879       0.00000000 </v>
     <v>       0.00000000       0.00000000       0.04751000 </v>
    </varray>
   </crystal>
   <varray name="positions" >
    <v>       0.00000000       0.00000000       0.45993000 </v>
    <v>       0.16667000       0.08333000       0.30996000 </v>
    <v>       0.25000000       0.00000000       0.45993000 </v>
    <v>       0.41667000       0.08333000       0.30996000 </v>
    <v>       0.50000000       0.00000000       0.45993000 </v>
    <v>       0.66667000       0.08333000       0.30996000 </v>
    <v>       0.75000000       0.00000000       0.45993000 </v>
    <v>       0.91667000       0.08333000       0.30996000 </v>
    <v>       0.00000000       0.25000000       0.45993000 </v>
    <v>       0.16667000       0.33333000       0.30996000 </v>
    <v>       0.25000000       0.25000000       0.45993000 </v>
    <v>       0.41667000       0.33333000       0.30996000 </v>
    <v>       0.50000000       0.25000000       0.45993000 </v>
    <v>       0.66667000       0.33333000       0.30996000 </v>
    <v>       0.75000000       0.25000000       0.45993000 </v>
    <v>       0.91667000       0.33333000       0.30996000 </v>
    <v>       0.00000000       0.50000000       0.45993000 </v>
    <v>       0.16667000       0.58333000       0.30996000 </v>
    <v>       0.25000000       0.50000000       0.45993000 </v>
    <v>       0.41667000       0.58333000       0.30996000 </v>
    <v>       0.50000000       0.50000000       0.45993000 </v>
    <v>       0.66667000       0.58333000       0.30996000 </v>
    <v>       0.75000000       0.50000000       0.45993000 </v>
    <v>       0.91667000       0.58333000       0.30996000 </v>
    <v>       0.00000000       0.75000000       0.45993000 </v>
    <v>       0.16667000       0.83333000       0.30996000 </v>
    <v>       0.25000000       0.75000000       0.45993000 </v>
    <v>       0.41667000       0.83333000       0.30996000 </v>
    <v>       0.50000000       0.75000000       0.45993000 </v>
    <v>       0.66667000       0.83333000       0.30996000 </v>
    <v>       0.75000000       0.75000000       0.45993000 </v>
    <v>       0.91667000       0.83333000       0.30996000 </v>
    <v>       0.08333000       0.16667000       0.27247000 </v>
    <v>       0.16667000       0.08333000       0.42244000 </v>
    <v>       0.08333000       0.16667000       0.49742000 </v>
    <v>       0.00000000       0.00000000       0.34745000 </v>
    <v>       0.16667000       0.08333000       0.19748000 </v>
    <v>       0.20842000       0.04158000       0.58116000 </v>
    <v>       0.33333000       0.16667000       0.27247000 </v>
    <v>       0.41667000       0.08333000       0.42244000 </v>
    <v>       0.33333000       0.16667000       0.49742000 </v>
    <v>       0.25000000       0.00000000       0.34745000 </v>
    <v>       0.41667000       0.08333000       0.19748000 </v>
    <v>       0.58333000       0.16667000       0.27247000 </v>
    <v>       0.66667000       0.08333000       0.42244000 </v>
    <v>       0.58333000       0.16667000       0.49742000 </v>
    <v>       0.50000000       0.00000000       0.34745000 </v>
    <v>       0.66667000       0.08333000       0.19748000 </v>
    <v>       0.70872000       0.04128000       0.58444000 </v>
    <v>       0.83333000       0.16667000       0.27247000 </v>
    <v>       0.91667000       0.08333000       0.42244000 </v>
    <v>       0.83333000       0.16667000       0.49742000 </v>
    <v>       0.75000000       0.00000000       0.34745000 </v>
    <v>       0.91667000       0.08333000       0.19748000 </v>
    <v>       0.08333000       0.41667000       0.27247000 </v>
    <v>       0.16667000       0.33333000       0.42244000 </v>
    <v>       0.08333000       0.41667000       0.49742000 </v>
    <v>       0.00000000       0.25000000       0.34745000 </v>
    <v>       0.16667000       0.33333000       0.19748000 </v>
    <v>       0.33333000       0.41667000       0.27247000 </v>
    <v>       0.41667000       0.33333000       0.42244000 </v>
    <v>       0.33333000       0.41667000       0.49742000 </v>
    <v>       0.25000000       0.25000000       0.34745000 </v>
    <v>       0.41667000       0.33333000       0.19748000 </v>
    <v>       0.45842000       0.29158000       0.58116000 </v>
    <v>       0.58333000       0.41667000       0.27247000 </v>
    <v>       0.66667000       0.33333000       0.42244000 </v>
    <v>       0.58333000       0.41667000       0.49742000 </v>
    <v>       0.50000000       0.25000000       0.34745000 </v>
    <v>       0.66667000       0.33333000       0.19748000 </v>
    <v>       0.83333000       0.41667000       0.27247000 </v>
    <v>       0.91667000       0.33333000       0.42244000 </v>
    <v>       0.83333000       0.41667000       0.49742000 </v>
    <v>       0.75000000       0.25000000       0.34745000 </v>
    <v>       0.91667000       0.33333000       0.19748000 </v>
    <v>       0.08333000       0.66667000       0.27247000 </v>
    <v>       0.16667000       0.58333000       0.42244000 </v>
    <v>       0.08333000       0.66667000       0.49742000 </v>
    <v>       0.00000000       0.50000000       0.34745000 </v>
    <v>       0.16667000       0.58333000       0.19748000 </v>
    <v>       0.20872000       0.54128000       0.58444000 </v>
    <v>       0.33333000       0.66667000       0.27247000 </v>
    <v>       0.41667000       0.58333000       0.42244000 </v>
    <v>       0.33333000       0.66667000       0.49742000 </v>
    <v>       0.25000000       0.50000000       0.34745000 </v>
    <v>       0.41667000       0.58333000       0.19748000 </v>
    <v>       0.58333000       0.66667000       0.27247000 </v>
    <v>       0.66667000       0.58333000       0.42244000 </v>
    <v>       0.58333000       0.66667000       0.49742000 </v>
    <v>       0.50000000       0.50000000       0.34745000 </v>
    <v>       0.66667000       0.58333000       0.19748000 </v>
    <v>       0.70842000       0.54158000       0.58116000 </v>
    <v>       0.83333000       0.66667000       0.27247000 </v>
    <v>       0.91667000       0.58333000       0.42244000 </v>
    <v>       0.83333000       0.66667000       0.49742000 </v>
    <v>       0.75000000       0.50000000       0.34745000 </v>
    <v>       0.91667000       0.58333000       0.19748000 </v>
    <v>       0.08333000       0.91667000       0.27247000 </v>
    <v>       0.16667000       0.83333000       0.42244000 </v>
    <v>       0.08333000       0.91667000       0.49742000 </v>
    <v>       0.00000000       0.75000000       0.34745000 </v>
    <v>       0.16667000       0.83333000       0.19748000 </v>
    <v>       0.33333000       0.91667000       0.27247000 </v>
    <v>       0.41667000       0.83333000       0.42244000 </v>
    <v>       0.33333000       0.91667000       0.49742000 </v>
    <v>       0.25000000       0.75000000       0.34745000 </v>
    <v>       0.41667000       0.83333000       0.19748000 </v>
    <v>       0.45872000       0.79128000       0.58444000 </v>
    <v>       0.58333000       0.91667000       0.27247000 </v>
    <v>       0.66667000       0.83333000       0.42244000 </v>
    <v>       0.58333000       0.91667000       0.49742000 </v>
    <v>       0.50000000       0.75000000       0.34745000 </v>
    <v>       0.66667000       0.83333000       0.19748000 </v>
    <v>       0.83333000       0.91667000       0.27247000 </v>
    <v>       0.91667000       0.83333000       0.42244000 </v>
    <v>       0.83333000       0.91667000       0.49742000 </v>
    <v>       0.75000000       0.75000000       0.34745000 </v>
    <v>       0.91667000       0.83333000       0.19748000 </v>
    <v>       0.51426000       0.49220000       0.58386000 </v>
    <v>       0.26652000       0.73994000       0.59099000 </v>
    <v>       0.51652000       0.98994000       0.59099000 </v>
    <v>       0.58851000       0.41951000       0.67258000 </v>
    <v>       0.33754000       0.67048000       0.67250000 </v>
    <v>       0.58754000       0.92048000       0.67250000 </v>
    <v>       0.65929000       0.34869000       0.58011000 </v>
    <v>       0.40939000       0.59859000       0.58424000 </v>
    <v>       0.65939000       0.84859000       0.58424000 </v>
    <v>       0.26112000       0.24167000       0.58188000 </v>
    <v>       0.33537000       0.16898000       0.67060000 </v>
    <v>       0.40614000       0.09816000       0.57813000 </v>
    <v>       0.58502000       0.91424000       0.58749000 </v>
    <v>       0.34137000       0.67329000       0.58504000 </v>
    <v>       0.59736000       0.42997000       0.58157000 </v>
    <v>       0.34421000       0.17945000       0.57959000 </v>
   </varray>
  </structure>
  <varray name="primitive_index" >
   <v type="int" >        1 </v>
   <v type="int" >        2 </v>
   <v type="int" >        3 </v>
   <v type="int" >        4 </v>
   <v type="int" >        5 </v>
   <v type="int" >        6 </v>
   <v type="int" >        7 </v>
   <v type="int" >        8 </v>
   <v type="int" >        9 </v>
   <v type="int" >       10 </v>
   <v type="int" >       11 </v>
   <v type="int" >       12 </v>
   <v type="int" >       13 </v>
   <v type="int" >       14 </v>
   <v type="int" >       15 </v>
   <v type="int" >       16 </v>
   <v type="int" >       17 </v>
   <v type="int" >       18 </v>
   <v type="int" >       19 </v>
   <v type="int" >       20 </v>
   <v type="int" >       21 </v>
   <v type="int" >       22 </v>
   <v type="int" >       23 </v>
   <v type="int" >       24 </v>
   <v type="int" >       25 </v>
   <v type="int" >       26 </v>
   <v type="int" >       27 </v>
   <v type="int" >       28 </v>
   <v type="int" >       29 </v>
   <v type="int" >       30 </v>
   <v type="int" >       31 </v>
   <v type="int" >       32 </v>
   <v type="int" >       33 </v>
   <v type="int" >       34 </v>
   <v type="int" >       35 </v>
   <v type="int" >       36 </v>
   <v type="int" >       37 </v>
   <v type="int" >       38 </v>
   <v type="int" >       39 </v>
   <v type="int" >       40 </v>
   <v type="int" >       41 </v>
   <v type="int" >       42 </v>
   <v type="int" >       43 </v>
   <v type="int" >       44 </v>
   <v type="int" >       45 </v>
   <v type="int" >       46 </v>
   <v type="int" >       47 </v>
   <v type="int" >       48 </v>
   <v type="int" >       49 </v>
   <v type="int" >       50 </v>
   <v type="int" >       51 </v>
   <v type="int" >       52 </v>
   <v type="int" >       53 </v>
   <v type="int" >       54 </v>
   <v type="int" >       55 </v>
   <v type="int" >       56 </v>
   <v type="int" >       57 </v>
   <v type="int" >       58 </v>
   <v type="int" >       59 </v>
   <v type="int" >       60 </v>
   <v type="int" >       61 </v>
   <v type="int" >       62 </v>
   <v type="int" >       63 </v>
   <v type="int" >       64 </v>
   <v type="int" >       65 </v>
   <v type="int" >       66 </v>
   <v type="int" >       67 </v>
   <v type="int" >       68 </v>
   <v type="int" >       69 </v>
   <v type="int" >       70 </v>
   <v type="int" >       71 </v>
   <v type="int" >       72 </v>
   <v type="int" >       73 </v>
   <v type="int" >       74 </v>
   <v type="int" >       75 </v>
   <v type="int" >       76 </v>
   <v type="int" >       77 </v>
   <v type="int" >       78 </v>
   <v type="int" >       79 </v>
   <v type="int" >       80 </v>
   <v type="int" >       81 </v>
   <v type="int" >       82 </v>
   <v type="int" >       83 </v>
   <v type="int" >       84 </v>
   <v type="int" >       85 </v>
   <v type="int" >       86 </v>
   <v type="int" >       87 </v>
   <v type="int" >       88 </v>
   <v type="int" >       89 </v>
   <v type="int" >       90 </v>
   <v type="int" >       91 </v>
   <v type="int" >       92 </v>
   <v type="int" >       93 </v>
   <v type="int" >       94 </v>
   <v type="int" >       95 </v>
   <v type="int" >       96 </v>
   <v type="int" >       97 </v>
   <v type="int" >       98 </v>
   <v type="int" >       99 </v>
   <v type="int" >      100 </v>
   <v type="int" >      101 </v>
   <v type="int" >      102 </v>
   <v type="int" >      103 </v>
   <v type="int" >      104 </v>
   <v type="int" >      105 </v>
   <v type="int" >      106 </v>
   <v type="int" >      107 </v>
   <v type="int" >      108 </v>
   <v type="int" >      109 </v>
   <v type="int" >      110 </v>
   <v type="int" >      111 </v>
   <v type="int" >      112 </v>
   <v type="int" >      113 </v>
   <v type="int" >      114 </v>
   <v type="int" >      115 </v>
   <v type="int" >      116 </v>
   <v type="int" >      117 </v>
   <v type="int" >      118 </v>
   <v type="int" >      119 </v>
   <v type="int" >      120 </v>
   <v type="int" >      121 </v>
   <v type="int" >      122 </v>
   <v type="int" >      123 </v>
   <v type="int" >      124 </v>
   <v type="int" >      125 </v>
   <v type="int" >      126 </v>
   <v type="int" >      127 </v>
   <v type="int" >      128 </v>
   <v type="int" >      129 </v>
   <v type="int" >      130 </v>
   <v type="int" >      131 </v>
   <v type="int" >      132 </v>
   <v type="int" >      133 </v>
   <v type="int" >      134 </v>
  </varray>
 </primitive_cell>
 <kpoints>
  <generation param="Gamma">
   <v type="int" name="divisions">       1        1        1 </v>
   <v name="usershift">      0.00000000       0.00000000       0.00000000 </v>
   <v name="genvec1">      1.00000000       0.00000000       0.00000000 </v>
   <v name="genvec2">      0.00000000       1.00000000       0.00000000 </v>
   <v name="genvec3">      0.00000000       0.00000000       1.00000000 </v>
   <v name="shift">      0.00000000       0.00000000       0.00000000 </v>
  </generation>
  <varray name="kpointlist" >
   <v>       0.00000000       0.00000000       0.00000000 </v>
  </varray>
  <varray name="weights" >
   <v>       1.00000000 </v>
  </varray>
 </kpoints>
 <parameters>
  <separator name="general" >
   <i type="string" name="SYSTEM">unknown system</i>
   <i type="logical" name="LCOMPAT"> F  </i>
  </separator>
  <separator name="electronic" >
   <i type="string" name="PREC">accura</i>
   <i name="ENMAX">    520.00000000</i>
   <i name="ENAUG">    605.39200000</i>
   <i name="EDIFF">      0.00000100</i>
   <i type="int" name="IALGO">    38</i>
   <i type="int" name="IWAVPR">    11</i>
   <i type="int" name="NBANDS">   672</i>
   <i type="int" name="NBANDSLOW">    -1</i>
   <i type="int" name="NBANDSHIGH">    -1</i>
   <i name="NELECT">   1008.00000000</i>
   <i type="int" name="TURBO">     0</i>
   <i type="int" name="IRESTART">     0</i>
   <i type="int" name="NREBOOT">     0</i>
   <i type="int" name="NMIN">     0</i>
   <i name="EREF">      0.00000000</i>
   <separator name="electronic smearing" >
    <i type="int" name="ISMEAR">     0</i>
    <i name="SIGMA">      0.05000000</i>
    <i name="KSPACING">      0.50000000</i>
    <i type="logical" name="KGAMMA"> T  </i>
    <i type="logical" name="KBLOWUP"> T  </i>
   </separator>
   <separator name="electronic projectors" >
    <i type="logical" name="LREAL"> F  </i>
    <v name="ROPT">      0.00000000      0.00000000      0.00000000</v>
    <i type="int" name="LMAXPAW">  -100</i>
    <i type="int" name="LMAXMIX">     6</i>
    <i type="logical" name="NLSPLINE"> F  </i>
   </separator>
   <separator name="electronic startup" >
    <i type="int" name="ISTART">     0</i>
    <i type="int" name="ICHARG">     2</i>
    <i type="int" name="INIWAV">     1</i>
   </separator>
   <separator name="electronic spin" >
    <i type="int" name="ISPIN">     2</i>
    <i type="logical" name="LNONCOLLINEAR"> F  </i>
    <v name="MAGMOM">      1.00000000      1.00000000      1.00000000      1.00000000      1.00000000      1.00000000      1.00000000      1.00000000      1.00000000      1.00000000      1.00000000      1.00000000      1.00000000      1.00000000      1.00000000      1.00000000      1.00000000      1.00000000      1.00000000      1.00000000
      1.00000000      1.00000000      1.00000000      1.00000000      1.00000000      1.00000000      1.00000000      1.00000000      1.00000000      1.00000000      1.00000000      1.00000000      0.60000000      0.60000000      0.60000000      0.60000000      0.60000000      0.60000000      0.60000000      0.60000000
      0.60000000      0.60000000      0.60000000      0.60000000      0.60000000      0.60000000      0.60000000      0.60000000      0.60000000      0.60000000      0.60000000      0.60000000      0.60000000      0.60000000      0.60000000      0.60000000      0.60000000      0.60000000      0.60000000      0.60000000
      0.60000000      0.60000000      0.60000000      0.60000000      0.60000000      0.60000000      0.60000000      0.60000000      0.60000000      0.60000000      0.60000000      0.60000000      0.60000000      0.60000000      0.60000000      0.60000000      0.60000000      0.60000000      0.60000000      0.60000000
      0.60000000      0.60000000      0.60000000      0.60000000      0.60000000      0.60000000      0.60000000      0.60000000      0.60000000      0.60000000      0.60000000      0.60000000      0.60000000      0.60000000      0.60000000      0.60000000      0.60000000      0.60000000      0.60000000      0.60000000
      0.60000000      0.60000000      0.60000000      0.60000000      0.60000000      0.60000000      0.60000000      0.60000000      0.60000000      0.60000000      0.60000000      0.60000000      0.60000000      0.60000000      0.60000000      0.60000000      0.60000000      0.60000000      0.60000000      0.60000000
      0.60000000      0.60000000      0.60000000      0.60000000      0.60000000      0.60000000      0.60000000      0.60000000      0.60000000      0.60000000      0.60000000      0.60000000      0.60000000      0.60000000</v>
    <i name="NUPDOWN">     -1.00000000</i>
    <i type="logical" name="LSORBIT"> F  </i>
    <v name="SAXIS">      0.00000000      0.00000000      1.00000000</v>
    <i type="logical" name="LSPIRAL"> F  </i>
    <v name="QSPIRAL">      0.00000000      0.00000000      0.00000000</v>
    <i type="logical" name="LZEROZ"> F  </i>
   </separator>
   <separator name="electronic exchange-correlation" >
    <i type="logical" name="LASPH"> T  </i>
   </separator>
   <separator name="electronic convergence" >
    <i type="int" name="NELM">    90</i>
    <i type="int" name="NELMDL">     0</i>
    <i type="int" name="NELMIN">     6</i>
    <i name="ENINI">    520.00000000</i>
    <separator name="electronic convergence detail" >
     <i type="logical" name="LDIAG"> T  </i>
     <i type="logical" name="LSUBROT"> F  </i>
     <i name="WEIMIN">      0.00100000</i>
     <i name="EBREAK">      0.00000000</i>
     <i name="DEPER">      0.30000000</i>
     <i type="int" name="NRMM">     4</i>
     <i name="TIME">      0.40000000</i>
    </separator>
   </separator>
   <separator name="electronic mixer" >
    <i name="AMIX">      0.40000000</i>
    <i name="BMIX">      1.00000000</i>
    <i name="AMIN">      0.10000000</i>
    <i name="AMIX_MAG">      1.60000000</i>
    <i name="BMIX_MAG">      1.00000000</i>
    <separator name="electronic mixer details" >
     <i type="int" name="IMIX">     4</i>
     <i type="logical" name="MIXFIRST"> F  </i>
     <i type="int" name="MAXMIX">   -45</i>
     <i name="WC">    100.00000000</i>
     <i type="int" name="INIMIX">     1</i>
     <i type="int" name="MIXPRE">     1</i>
     <i type="int" name="MREMOVE">     5</i>
    </separator>
   </separator>
   <separator name="electronic dipolcorrection" >
    <i type="logical" name="LDIPOL"> F  </i>
    <i type="logical" name="LMONO"> F  </i>
    <i type="int" name="IDIPOL">     0</i>
    <i name="EPSILON">      1.00000000</i>
    <v name="DIPOL">   -100.00000000   -100.00000000   -100.00000000</v>
    <i name="EFIELD">      0.00000000</i>
    <i type="logical" name="LVACPOTAV"> F  </i>
   </separator>
  </separator>
  <separator name="grids" >
   <i type="int" name="NGX">   120</i>
   <i type="int" name="NGY">   120</i>
   <i type="int" name="NGZ">   160</i>
   <i type="int" name="NGXF">   240</i>
   <i type="int" name="NGYF">   240</i>
   <i type="int" name="NGZF">   320</i>
   <i type="logical" name="ADDGRID"> T  </i>
  </separator>
  <separator name="ionic" >
   <i type="int" name="NSW">   300</i>
   <i type="int" name="IBRION">     2</i>
   <i type="int" name="MDALGO">     0</i>
   <i type="int" name="ISIF">     2</i>
   <i name="PSTRESS">      0.00000000</i>
   <i name="EDIFFG">     -0.02000000</i>
   <i type="int" name="NFREE">     1</i>
   <i name="POTIM">      0.50000000</i>
   <i name="SMASS">     -3.00000000</i>
   <i name="SCALEE">      1.00000000</i>
  </separator>
  <separator name="ionic md" >
   <i name="TEBEG">      0.00010000</i>
   <i name="TEEND">      0.00010000</i>
   <i type="int" name="NBLOCK">     1</i>
   <i type="int" name="KBLOCK">   300</i>
   <i type="int" name="NPACO">   256</i>
   <i name="APACO">     10.00000000</i>
  </separator>
  <separator name="symmetry" >
   <i type="int" name="ISYM">     2</i>
   <i name="SYMPREC">      0.00001000</i>
  </separator>
  <separator name="dos" >
   <i type="int" name="LORBIT">     0</i>
   <v name="RWIGS">     -1.00000000     -1.00000000     -1.00000000</v>
   <i type="int" name="NEDOS">   301</i>
   <i name="EMIN">     10.00000000</i>
   <i name="EMAX">    -10.00000000</i>
   <i name="EFERMI">      0.00000000</i>
  </separator>
  <separator name="writing" >
   <i type="int" name="NWRITE">     2</i>
   <i type="logical" name="LWAVE"> F  </i>
   <i type="logical" name="LDOWNSAMPLE"> F  </i>
   <i type="logical" name="LCHARG"> F  </i>
   <i type="logical" name="LPARD"> F  </i>
   <i type="logical" name="LVTOT"> F  </i>
   <i type="logical" name="LVHAR"> F  </i>
   <i type="logical" name="LELF"> F  </i>
   <i type="logical" name="LOPTICS"> F  </i>
   <v name="STM">      0.00000000      0.00000000      0.00000000      0.00000000      0.00000000      0.00000000      0.00000000</v>
  </separator>
  <separator name="performance" >
   <i type="int" name="NPAR">    48</i>
   <i type="int" name="NSIM">     4</i>
   <i type="int" name="NBLK">    -1</i>
   <i type="logical" name="LPLANE"> T  </i>
   <i type="logical" name="LSCALAPACK"> T  </i>
   <i type="logical" name="LSCAAWARE"> F  </i>
   <i type="logical" name="LSCALU"> F  </i>
   <i type="logical" name="LASYNC"> F  </i>
   <i type="logical" name="LORBITALREAL"> F  </i>
  </separator>
  <separator name="miscellaneous" >
   <i type="int" name="IDIOT">     3</i>
   <i type="int" name="PHON_NSTRUCT">    -1</i>
   <i type="logical" name="LMUSIC"> F  </i>
   <v name="POMASS">    140.11500000     16.00000000    192.22000000</v>
   <v name="DARWINR">      0.00000000      0.00000000      0.00000000</v>
   <v name="DARWINV">      1.00000000      1.00000000      1.00000000</v>
   <i type="logical" name="LCORR"> T  </i>
  </separator>
  <i type="logical" name="GGA_COMPAT"> T  </i>
  <i type="logical" name="LBERRY"> F  </i>
  <i type="int" name="ICORELEVEL">     0</i>
  <i type="logical" name="LDAU"> T  </i>
  <v type="int" name="LDAUTYPE">     2</v>
  <v type="int" name="LDAUL">     3</v>
  <v name="LDAUU">      5.00000000</v>
  <v name="LDAUJ">      0.00000000</v>
  <i type="int" name="LDAUPRINT">     0</i>
  <i type="int" name="I_CONSTRAINED_M">     0</i>
  <separator name="electronic exchange-correlation" >
   <i type="string" name="GGA    ">PE</i>
   <i type="string" name="XC_C">1</i>
   <i type="int" name="VOSKOWN">     0</i>
   <i type="logical" name="LHFCALC"> F  </i>
   <i type="string" name="PRECFOCK"></i>
   <i type="logical" name="LSYMGRAD"> F  </i>
   <i type="logical" name="LHFONE"> F  </i>
   <i type="logical" name="LRHFCALC"> F  </i>
   <i type="logical" name="LTHOMAS"> F  </i>
   <i type="logical" name="LMODELHF"> F  </i>
   <i type="logical" name="LFOCKACE"> F  </i>
   <i name="ENCUT4O">     -1.00000000</i>
   <i type="int" name="EXXOEP">     0</i>
   <i type="int" name="FOURORBIT">     0</i>
   <i name="AEXX">      0.00000000</i>
   <i name="HFALPHA">      0.00000000</i>
   <i name="MCALPHA">      0.00000000</i>
   <i name="ALDAX">      1.00000000</i>
   <i name="AGGAX">      1.00000000</i>
   <i name="AMGGAX">      1.00000000</i>
   <i name="ALDAC">      1.00000000</i>
   <i name="AGGAC">      1.00000000</i>
   <i name="AMGGAC">      1.00000000</i>
   <i type="int" name="NKREDX">     1</i>
   <i type="int" name="NKREDY">     1</i>
   <i type="int" name="NKREDZ">     1</i>
   <i type="logical" name="SHIFTRED"> F  </i>
   <i type="logical" name="ODDONLY"> F  </i>
   <i type="logical" name="EVENONLY"> F  </i>
   <i type="int" name="LMAXFOCK">     0</i>
   <i type="int" name="NMAXFOCKAE">     0</i>
   <i type="logical" name="LFOCKAEDFT"> F  </i>
   <i name="HFSCREEN">      0.00000000</i>
   <i name="HFSCREENC">      0.00000000</i>
   <i type="int" name="NBANDSGWLOW">     0</i>
  </separator>
  <separator name="vdW DFT" >
   <i type="logical" name="LUSE_VDW"> F  </i>
   <i type="int" name="IVDW_NL">    -1</i>
   <i type="logical" name="LSPIN_VDW"> F  </i>
   <i name="ZAB_VDW">     -0.84910000</i>
   <i name="GAMMA_VDW">      1.39626340</i>
   <i name="ALPHA_VDW">      0.00000000</i>
   <i name="PARAM1">      0.12340000</i>
   <i name="PARAM2">      1.00000000</i>
   <i name="BPARAM">      6.30000000</i>
   <i name="CPARAM">      0.00930000</i>
  </separator>
  <separator name="model GW" >
   <i type="int" name="MODEL_GW">     0</i>
   <i name="MODEL_EPS0">     19.51877686</i>
   <i name="MODEL_ALPHA">      1.00000000</i>
  </separator>
  <separator name="linear response parameters" >
   <i type="logical" name="LEPSILON"> F  </i>
   <i type="logical" name="LRPA"> F  </i>
   <i type="logical" name="LNABLA"> F  </i>
   <i type="logical" name="LVEL"> F  </i>
   <i name="CSHIFT">      0.10000000</i>
   <i name="OMEGAMAX">     -1.00000000</i>
   <i name="DEG_THRESHOLD">      0.00200000</i>
   <i name="RTIME">     -0.10000000</i>
   <i name="WPLASMAI">      0.00000000</i>
   <v name="DFIELD">      0.00000000      0.00000000      0.00000000</v>
   <v name="WPLASMA">      0.00000000      0.00000000      0.00000000      0.00000000      0.00000000      0.00000000      0.00000000      0.00000000      0.00000000</v>
  </separator>
  <separator name="orbital magnetization" >
   <i type="logical" name="NUCIND"> F  </i>
   <v name="MAGPOS">      0.00000000      0.00000000      0.00000000</v>
   <i type="logical" name="LNICSALL"> T  </i>
   <i type="logical" name="ORBITALMAG"> F  </i>
   <i type="logical" name="LMAGBLOCH"> F  </i>
   <i type="logical" name="LCHIMAG"> F  </i>
   <i type="logical" name="LGAUGE"> T  </i>
   <i type="int" name="MAGATOM">     0</i>
   <v name="MAGDIPOL">      0.00000000      0.00000000      0.00000000</v>
   <v name="AVECCONST">      0.00000000      0.00000000      0.00000000</v>
  </separator>
  <separator name="response functions" >
   <i type="logical" name="LALL_IN_ONE"> F  </i>
   <i type="int" name="IALL_IN_ONE">    -1</i>
   <i type="int" name="NBANDS_WAVE">    -1</i>
   <i type="logical" name="LFINITE_TEMPERATURE"> F  </i>
   <i type="logical" name="LADDER"> F  </i>
   <i type="logical" name="LRPAFORCE"> F  </i>
   <i type="logical" name="LFXC"> F  </i>
   <i type="logical" name="LHARTREE"> T  </i>
   <i type="int" name="IBSE">     0</i>
   <v type="int" name="KPOINT">    -1     0     0     0</v>
   <i type="logical" name="LTCTC"> F  </i>
   <i type="logical" name="LTCTE"> F  </i>
   <i type="logical" name="LTETE"> F  </i>
   <i type="logical" name="LTRIPLET"> F  </i>
   <i type="logical" name="LFXCEPS"> F  </i>
   <i type="logical" name="LFXHEG"> F  </i>
   <i type="int" name="NATURALO">     2</i>
   <i type="logical" name="LHOLEGF"> F  </i>
   <i type="logical" name="L2ORDER"> F  </i>
   <i type="logical" name="LDMP1"> F  </i>
   <i type="logical" name="LMP2LT"> F  </i>
   <i type="logical" name="LSMP2LT"> F  </i>
   <i type="logical" name="LGWLF"> F  </i>
   <i name="ENCUTGW">     -1.60000002</i>
   <i name="ENCUTGWSOFT">     -1.60000002</i>
   <i name="ENCUTLF">     -1.00000000</i>
   <i type="logical" name="ESF_SPLINES"> F  </i>
   <i name="ESF_CONV">      0.01000000</i>
   <i type="int" name="ESF_NINTER">    15</i>
   <i type="int" name="LMAXMP2">    -1</i>
   <i name="SCISSOR">      0.00000000</i>
   <i type="int" name="NOMEGA">     0</i>
   <i type="int" name="NOMEGAR">     0</i>
   <i type="int" name="NBANDSGW">    -1</i>
   <i type="int" name="NBANDSO">    -1</i>
   <i type="int" name="NBANDSV">    -1</i>
   <i type="int" name="NELMGW">     1</i>
   <i type="int" name="NELMHF">     1</i>
   <i type="int" name="DIM">     3</i>
   <i type="int" name="IESPILON">     4</i>
   <i type="int" name="ANTIRES">     0</i>
   <i name="OMEGAMAX">    -30.00000000</i>
   <i name="OMEGAMIN">    -30.00000000</i>
   <i name="OMEGATL">   -200.00000000</i>
   <i type="int" name="OMEGAGRID">     0</i>
   <i name="CSHIFT">     -0.10000000</i>
   <i type="logical" name="LSELFENERGY"> F  </i>
   <i type="logical" name="LSPECTRAL"> F  </i>
   <i type="logical" name="LSPECTRALGW"> F  </i>
   <i type="logical" name="LSINGLES"> F  </i>
   <i type="logical" name="LFERMIGW"> F  </i>
   <i type="logical" name="ODDONLYGW"> F  </i>
   <i type="logical" name="EVENONLYGW"> F  </i>
   <i type="int" name="NKREDLFX">     1</i>
   <i type="int" name="NKREDLFY">     1</i>
   <i type="int" name="NKREDLFZ">     1</i>
   <i type="int" name="MAXMEM">  2800</i>
   <i type="int" name="TELESCOPE">     0</i>
   <i type="int" name="NTAUPAR">    -1</i>
   <i type="int" name="NOMEGAPAR">    -1</i>
   <i name="DAMP_NEWTON">      0.80000001</i>
   <i name="LAMBDA">      1.00000000</i>
  </separator>
  <separator name="External order field" >
   <i name="OFIELD_KAPPA">      0.00000000</i>
   <v name="OFIELD_K">      0.00000000      0.00000000      0.00000000</v>
   <i name="OFIELD_Q6_NEAR">      0.00000000</i>
   <i name="OFIELD_Q6_FAR">      0.00000000</i>
   <i name="OFIELD_A">      0.00000000</i>
  </separator>
  <separator name="optional k-points parameters" >
   <i type="int" name="KPOINTS_OPT_MODE">     1</i>
   <i type="logical" name="LKPOINTS_OPT"> F  </i>
  </separator>
 </parameters>
 <atominfo>
  <atoms>     134 </atoms>
  <types>       3 </types>
  <array name="atoms" >
   <dimension dim="1">ion</dimension>
   <field type="string">element</field>
   <field type="int">atomtype</field>
   <set>
    <rc><c>Ce</c><c>   1</c></rc>
    <rc><c>Ce</c><c>   1</c></rc>
    <rc><c>Ce</c><c>   1</c></rc>
    <rc><c>Ce</c><c>   1</c></rc>
    <rc><c>Ce</c><c>   1</c></rc>
    <rc><c>Ce</c><c>   1</c></rc>
    <rc><c>Ce</c><c>   1</c></rc>
    <rc><c>Ce</c><c>   1</c></rc>
    <rc><c>Ce</c><c>   1</c></rc>
    <rc><c>Ce</c><c>   1</c></rc>
    <rc><c>Ce</c><c>   1</c></rc>
    <rc><c>Ce</c><c>   1</c></rc>
    <rc><c>Ce</c><c>   1</c></rc>
    <rc><c>Ce</c><c>   1</c></rc>
    <rc><c>Ce</c><c>   1</c></rc>
    <rc><c>Ce</c><c>   1</c></rc>
    <rc><c>Ce</c><c>   1</c></rc>
    <rc><c>Ce</c><c>   1</c></rc>
    <rc><c>Ce</c><c>   1</c></rc>
    <rc><c>Ce</c><c>   1</c></rc>
    <rc><c>Ce</c><c>   1</c></rc>
    <rc><c>Ce</c><c>   1</c></rc>
    <rc><c>Ce</c><c>   1</c></rc>
    <rc><c>Ce</c><c>   1</c></rc>
    <rc><c>Ce</c><c>   1</c></rc>
    <rc><c>Ce</c><c>   1</c></rc>
    <rc><c>Ce</c><c>   1</c></rc>
    <rc><c>Ce</c><c>   1</c></rc>
    <rc><c>Ce</c><c>   1</c></rc>
    <rc><c>Ce</c><c>   1</c></rc>
    <rc><c>Ce</c><c>   1</c></rc>
    <rc><c>Ce</c><c>   1</c></rc>
    <rc><c>O </c><c>   2</c></rc>
    <rc><c>O </c><c>   2</c></rc>
    <rc><c>O </c><c>   2</c></rc>
    <rc><c>O </c><c>   2</c></rc>
    <rc><c>O </c><c>   2</c></rc>
    <rc><c>O </c><c>   2</c></rc>
    <rc><c>O </c><c>   2</c></rc>
    <rc><c>O </c><c>   2</c></rc>
    <rc><c>O </c><c>   2</c></rc>
    <rc><c>O </c><c>   2</c></rc>
    <rc><c>O </c><c>   2</c></rc>
    <rc><c>O </c><c>   2</c></rc>
    <rc><c>O </c><c>   2</c></rc>
    <rc><c>O </c><c>   2</c></rc>
    <rc><c>O </c><c>   2</c></rc>
    <rc><c>O </c><c>   2</c></rc>
    <rc><c>O </c><c>   2</c></rc>
    <rc><c>O </c><c>   2</c></rc>
    <rc><c>O </c><c>   2</c></rc>
    <rc><c>O </c><c>   2</c></rc>
    <rc><c>O </c><c>   2</c></rc>
    <rc><c>O </c><c>   2</c></rc>
    <rc><c>O </c><c>   2</c></rc>
    <rc><c>O </c><c>   2</c></rc>
    <rc><c>O </c><c>   2</c></rc>
    <rc><c>O </c><c>   2</c></rc>
    <rc><c>O </c><c>   2</c></rc>
    <rc><c>O </c><c>   2</c></rc>
    <rc><c>O </c><c>   2</c></rc>
    <rc><c>O </c><c>   2</c></rc>
    <rc><c>O </c><c>   2</c></rc>
    <rc><c>O </c><c>   2</c></rc>
    <rc><c>O </c><c>   2</c></rc>
    <rc><c>O </c><c>   2</c></rc>
    <rc><c>O </c><c>   2</c></rc>
    <rc><c>O </c><c>   2</c></rc>
    <rc><c>O </c><c>   2</c></rc>
    <rc><c>O </c><c>   2</c></rc>
    <rc><c>O </c><c>   2</c></rc>
    <rc><c>O </c><c>   2</c></rc>
    <rc><c>O </c><c>   2</c></rc>
    <rc><c>O </c><c>   2</c></rc>
    <rc><c>O </c><c>   2</c></rc>
    <rc><c>O </c><c>   2</c></rc>
    <rc><c>O </c><c>   2</c></rc>
    <rc><c>O </c><c>   2</c></rc>
    <rc><c>O </c><c>   2</c></rc>
    <rc><c>O </c><c>   2</c></rc>
    <rc><c>O </c><c>   2</c></rc>
    <rc><c>O </c><c>   2</c></rc>
    <rc><c>O </c><c>   2</c></rc>
    <rc><c>O </c><c>   2</c></rc>
    <rc><c>O </c><c>   2</c></rc>
    <rc><c>O </c><c>   2</c></rc>
    <rc><c>O </c><c>   2</c></rc>
    <rc><c>O </c><c>   2</c></rc>
    <rc><c>O </c><c>   2</c></rc>
    <rc><c>O </c><c>   2</c></rc>
    <rc><c>O </c><c>   2</c></rc>
    <rc><c>O </c><c>   2</c></rc>
    <rc><c>O </c><c>   2</c></rc>
    <rc><c>O </c><c>   2</c></rc>
    <rc><c>O </c><c>   2</c></rc>
    <rc><c>O </c><c>   2</c></rc>
    <rc><c>O </c><c>   2</c></rc>
    <rc><c>O </c><c>   2</c></rc>
    <rc><c>O </c><c>   2</c></rc>
    <rc><c>O </c><c>   2</c></rc>
    <rc><c>O </c><c>   2</c></rc>
    <rc><c>O </c><c>   2</c></rc>
    <rc><c>O </c><c>   2</c></rc>
    <rc><c>O </c><c>   2</c></rc>
    <rc><c>O </c><c>   2</c></rc>
    <rc><c>O </c><c>   2</c></rc>
    <rc><c>O </c><c>   2</c></rc>
    <rc><c>O </c><c>   2</c></rc>
    <rc><c>O </c><c>   2</c></rc>
    <rc><c>O </c><c>   2</c></rc>
    <rc><c>O </c><c>   2</c></rc>
    <rc><c>O </c><c>   2</c></rc>
    <rc><c>O </c><c>   2</c></rc>
    <rc><c>O </c><c>   2</c></rc>
    <rc><c>O </c><c>   2</c></rc>
    <rc><c>O </c><c>   2</c></rc>
    <rc><c>O </c><c>   2</c></rc>
    <rc><c>O </c><c>   2</c></rc>
    <rc><c>O </c><c>   2</c></rc>
    <rc><c>O </c><c>   2</c></rc>
    <rc><c>O </c><c>   2</c></rc>
    <rc><c>O </c><c>   2</c></rc>
    <rc><c>O </c><c>   2</c></rc>
    <rc><c>O </c><c>   2</c></rc>
    <rc><c>O </c><c>   2</c></rc>
    <rc><c>O </c><c>   2</c></rc>
    <rc><c>O </c><c>   2</c></rc>
    <rc><c>O </c><c>   2</c></rc>
    <rc><c>O </c><c>   2</c></rc>
    <rc><c>O </c><c>   2</c></rc>
    <rc><c>Ir</c><c>   3</c></rc>
    <rc><c>Ir</c><c>   3</c></rc>
    <rc><c>Ir</c><c>   3</c></rc>
    <rc><c>Ir</c><c>   3</c></rc>
   </set>
  </array>
  <array name="atomtypes" >
   <dimension dim="1">type</dimension>
   <field type="int">atomspertype</field>
   <field type="string">element</field>
   <field>mass</field>
   <field>valence</field>
   <field type="string">pseudopotential</field>
   <set>
    <rc><c>  32</c><c>Ce</c><c>    140.11500000</c><c>     12.00000000</c><c>  PAW_PBE Ce 23Dec2003                  </c></rc>
    <rc><c>  98</c><c>O </c><c>     16.00000000</c><c>      6.00000000</c><c>  PAW_PBE O 08Apr2002                   </c></rc>
    <rc><c>   4</c><c>Ir</c><c>    192.22000000</c><c>      9.00000000</c><c>  PAW_PBE Ir 06Sep2000                  </c></rc>
   </set>
  </array>
 </atominfo>
 <structure name="initialpos" >
  <crystal>
   <varray name="basis" >
    <v>      15.46430016       0.00000000       0.00000000 </v>
    <v>      -7.73215008      13.39247679       0.00000000 </v>
    <v>       0.00000000       0.00000000      21.04820061 </v>
   </varray>
   <i name="volume">   4359.19349823 </i>
   <varray name="rec_basis" >
    <v>       0.06466507       0.03733439       0.00000000 </v>
    <v>       0.00000000       0.07466879       0.00000000 </v>
    <v>       0.00000000       0.00000000       0.04751000 </v>
   </varray>
  </crystal>
  <varray name="positions" >
   <v>       0.00000000       0.00000000       0.45993000 </v>
   <v>       0.16667000       0.08333000       0.30996000 </v>
   <v>       0.25000000       0.00000000       0.45993000 </v>
   <v>       0.41667000       0.08333000       0.30996000 </v>
   <v>       0.50000000       0.00000000       0.45993000 </v>
   <v>       0.66667000       0.08333000       0.30996000 </v>
   <v>       0.75000000       0.00000000       0.45993000 </v>
   <v>       0.91667000       0.08333000       0.30996000 </v>
   <v>       0.00000000       0.25000000       0.45993000 </v>
   <v>       0.16667000       0.33333000       0.30996000 </v>
   <v>       0.25000000       0.25000000       0.45993000 </v>
   <v>       0.41667000       0.33333000       0.30996000 </v>
   <v>       0.50000000       0.25000000       0.45993000 </v>
   <v>       0.66667000       0.33333000       0.30996000 </v>
   <v>       0.75000000       0.25000000       0.45993000 </v>
   <v>       0.91667000       0.33333000       0.30996000 </v>
   <v>       0.00000000       0.50000000       0.45993000 </v>
   <v>       0.16667000       0.58333000       0.30996000 </v>
   <v>       0.25000000       0.50000000       0.45993000 </v>
   <v>       0.41667000       0.58333000       0.30996000 </v>
   <v>       0.50000000       0.50000000       0.45993000 </v>
   <v>       0.66667000       0.58333000       0.30996000 </v>
   <v>       0.75000000       0.50000000       0.45993000 </v>
   <v>       0.91667000       0.58333000       0.30996000 </v>
   <v>       0.00000000       0.75000000       0.45993000 </v>
   <v>       0.16667000       0.83333000       0.30996000 </v>
   <v>       0.25000000       0.75000000       0.45993000 </v>
   <v>       0.41667000       0.83333000       0.30996000 </v>
   <v>       0.50000000       0.75000000       0.45993000 </v>
   <v>       0.66667000       0.83333000       0.30996000 </v>
   <v>       0.75000000       0.75000000       0.45993000 </v>
   <v>       0.91667000       0.83333000       0.30996000 </v>
   <v>       0.08333000       0.16667000       0.27247000 </v>
   <v>       0.16667000       0.08333000       0.42244000 </v>
   <v>       0.08333000       0.16667000       0.49742000 </v>
   <v>       0.00000000       0.00000000       0.34745000 </v>
   <v>       0.16667000       0.08333000       0.19748000 </v>
   <v>       0.20842000       0.04158000       0.58116000 </v>
   <v>       0.33333000       0.16667000       0.27247000 </v>
   <v>       0.41667000       0.08333000       0.42244000 </v>
   <v>       0.33333000       0.16667000       0.49742000 </v>
   <v>       0.25000000       0.00000000       0.34745000 </v>
   <v>       0.41667000       0.08333000       0.19748000 </v>
   <v>       0.58333000       0.16667000       0.27247000 </v>
   <v>       0.66667000       0.08333000       0.42244000 </v>
   <v>       0.58333000       0.16667000       0.49742000 </v>
   <v>       0.50000000       0.00000000       0.34745000 </v>
   <v>       0.66667000       0.08333000       0.19748000 </v>
   <v>       0.70872000       0.04128000       0.58444000 </v>
   <v>       0.83333000       0.16667000       0.27247000 </v>
   <v>       0.91667000       0.08333000       0.42244000 </v>
   <v>       0.83333000       0.16667000       0.49742000 </v>
   <v>       0.75000000       0.00000000       0.34745000 </v>
   <v>       0.91667000       0.08333000       0.19748000 </v>
   <v>       0.08333000       0.41667000       0.27247000 </v>
   <v>       0.16667000       0.33333000       0.42244000 </v>
   <v>       0.08333000       0.41667000       0.49742000 </v>
   <v>       0.00000000       0.25000000       0.34745000 </v>
   <v>       0.16667000       0.33333000       0.19748000 </v>
   <v>       0.33333000       0.41667000       0.27247000 </v>
   <v>       0.41667000       0.33333000       0.42244000 </v>
   <v>       0.33333000       0.41667000       0.49742000 </v>
   <v>       0.25000000       0.25000000       0.34745000 </v>
   <v>       0.41667000       0.33333000       0.19748000 </v>
   <v>       0.45842000       0.29158000       0.58116000 </v>
   <v>       0.58333000       0.41667000       0.27247000 </v>
   <v>       0.66667000       0.33333000       0.42244000 </v>
   <v>       0.58333000       0.41667000       0.49742000 </v>
   <v>       0.50000000       0.25000000       0.34745000 </v>
   <v>       0.66667000       0.33333000       0.19748000 </v>
   <v>       0.83333000       0.41667000       0.27247000 </v>
   <v>       0.91667000       0.33333000       0.42244000 </v>
   <v>       0.83333000       0.41667000       0.49742000 </v>
   <v>       0.75000000       0.25000000       0.34745000 </v>
   <v>       0.91667000       0.33333000       0.19748000 </v>
   <v>       0.08333000       0.66667000       0.27247000 </v>
   <v>       0.16667000       0.58333000       0.42244000 </v>
   <v>       0.08333000       0.66667000       0.49742000 </v>
   <v>       0.00000000       0.50000000       0.34745000 </v>
   <v>       0.16667000       0.58333000       0.19748000 </v>
   <v>       0.20872000       0.54128000       0.58444000 </v>
   <v>       0.33333000       0.66667000       0.27247000 </v>
   <v>       0.41667000       0.58333000       0.42244000 </v>
   <v>       0.33333000       0.66667000       0.49742000 </v>
   <v>       0.25000000       0.50000000       0.34745000 </v>
   <v>       0.41667000       0.58333000       0.19748000 </v>
   <v>       0.58333000       0.66667000       0.27247000 </v>
   <v>       0.66667000       0.58333000       0.42244000 </v>
   <v>       0.58333000       0.66667000       0.49742000 </v>
   <v>       0.50000000       0.50000000       0.34745000 </v>
   <v>       0.66667000       0.58333000       0.19748000 </v>
   <v>       0.70842000       0.54158000       0.58116000 </v>
   <v>       0.83333000       0.66667000       0.27247000 </v>
   <v>       0.91667000       0.58333000       0.42244000 </v>
   <v>       0.83333000       0.66667000       0.49742000 </v>
   <v>       0.75000000       0.50000000       0.34745000 </v>
   <v>       0.91667000       0.58333000       0.19748000 </v>
   <v>       0.08333000       0.91667000       0.27247000 </v>
   <v>       0.16667000       0.83333000       0.42244000 </v>
   <v>       0.08333000       0.91667000       0.49742000 </v>
   <v>       0.00000000       0.75000000       0.34745000 </v>
   <v>       0.16667000       0.83333000       0.19748000 </v>
   <v>       0.33333000       0.91667000       0.27247000 </v>
   <v>       0.41667000       0.83333000       0.42244000 </v>
   <v>       0.33333000       0.91667000       0.49742000 </v>
   <v>       0.25000000       0.75000000       0.34745000 </v>
   <v>       0.41667000       0.83333000       0.19748000 </v>
   <v>       0.45872000       0.79128000       0.58444000 </v>
   <v>       0.58333000       0.91667000       0.27247000 </v>
   <v>       0.66667000       0.83333000       0.42244000 </v>
   <v>       0.58333000       0.91667000       0.49742000 </v>
   <v>       0.50000000       0.75000000       0.34745000 </v>
   <v>       0.66667000       0.83333000       0.19748000 </v>
   <v>       0.83333000       0.91667000       0.27247000 </v>
   <v>       0.91667000       0.83333000       0.42244000 </v>
   <v>       0.83333000       0.91667000       0.49742000 </v>
   <v>       0.75000000       0.75000000       0.34745000 </v>
   <v>       0.91667000       0.83333000       0.19748000 </v>
   <v>       0.51426000       0.49220000       0.58386000 </v>
   <v>       0.26652000       0.73994000       0.59099000 </v>
   <v>       0.51652000       0.98994000       0.59099000 </v>
   <v>       0.58851000       0.41951000       0.67258000 </v>
   <v>       0.33754000       0.67048000       0.67250000 </v>
   <v>       0.58754000       0.92048000       0.67250000 </v>
   <v>       0.65929000       0.34869000       0.58011000 </v>
   <v>       0.40939000       0.59859000       0.58424000 </v>
   <v>       0.65939000       0.84859000       0.58424000 </v>
   <v>       0.26112000       0.24167000       0.58188000 </v>
   <v>       0.33537000       0.16898000       0.67060000 </v>
   <v>       0.40614000       0.09816000       0.57813000 </v>
   <v>       0.58502000       0.91424000       0.58749000 </v>
   <v>       0.34137000       0.67329000       0.58504000 </v>
   <v>       0.59736000       0.42997000       0.58157000 </v>
   <v>       0.34421000       0.17945000       0.57959000 </v>
  </varray>
  <varray name="selective"  type="logical" >
   <v type="logical" >  T  T  T </v>
   <v type="logical" >  F  F  F </v>
   <v type="logical" >  T  T  T </v>
   <v type="logical" >  F  F  F </v>
   <v type="logical" >  T  T  T </v>
   <v type="logical" >  F  F  F </v>
   <v type="logical" >  T  T  T </v>
   <v type="logical" >  F  F  F </v>
   <v type="logical" >  T  T  T </v>
   <v type="logical" >  F  F  F </v>
   <v type="logical" >  T  T  T </v>
   <v type="logical" >  F  F  F </v>
   <v type="logical" >  T  T  T </v>
   <v type="logical" >  F  F  F </v>
   <v type="logical" >  T  T  T </v>
   <v type="logical" >  F  F  F </v>
   <v type="logical" >  T  T  T </v>
   <v type="logical" >  F  F  F </v>
   <v type="logical" >  T  T  T </v>
   <v type="logical" >  F  F  F </v>
   <v type="logical" >  T  T  T </v>
   <v type="logical" >  F  F  F </v>
   <v type="logical" >  T  T  T </v>
   <v type="logical" >  F  F  F </v>
   <v type="logical" >  T  T  T </v>
   <v type="logical" >  F  F  F </v>
   <v type="logical" >  T  T  T </v>
   <v type="logical" >  F  F  F </v>
   <v type="logical" >  T  T  T </v>
   <v type="logical" >  F  F  F </v>
   <v type="logical" >  T  T  T </v>
   <v type="logical" >  F  F  F </v>
   <v type="logical" >  F  F  F </v>
   <v type="logical" >  T  T  T </v>
   <v type="logical" >  T  T  T </v>
   <v type="logical" >  F  F  F </v>
   <v type="logical" >  F  F  F </v>
   <v type="logical" >  T  T  T </v>
   <v type="logical" >  F  F  F </v>
   <v type="logical" >  T  T  T </v>
   <v type="logical" >  T  T  T </v>
   <v type="logical" >  F  F  F </v>
   <v type="logical" >  F  F  F </v>
   <v type="logical" >  F  F  F </v>
   <v type="logical" >  T  T  T </v>
   <v type="logical" >  T  T  T </v>
   <v type="logical" >  F  F  F </v>
   <v type="logical" >  F  F  F </v>
   <v type="logical" >  T  T  T </v>
   <v type="logical" >  F  F  F </v>
   <v type="logical" >  T  T  T </v>
   <v type="logical" >  T  T  T </v>
   <v type="logical" >  F  F  F </v>
   <v type="logical" >  F  F  F </v>
   <v type="logical" >  F  F  F </v>
   <v type="logical" >  T  T  T </v>
   <v type="logical" >  T  T  T </v>
   <v type="logical" >  F  F  F </v>
   <v type="logical" >  F  F  F </v>
   <v type="logical" >  F  F  F </v>
   <v type="logical" >  T  T  T </v>
   <v type="logical" >  T  T  T </v>
   <v type="logical" >  F  F  F </v>
   <v type="logical" >  F  F  F </v>
   <v type="logical" >  T  T  T </v>
   <v type="logical" >  F  F  F </v>
   <v type="logical" >  T  T  T </v>
   <v type="logical" >  T  T  T </v>
   <v type="logical" >  F  F  F </v>
   <v type="logical" >  F  F  F </v>
   <v type="logical" >  F  F  F </v>
   <v type="logical" >  T  T  T </v>
   <v type="logical" >  T  T  T </v>
   <v type="logical" >  F  F  F </v>
   <v type="logical" >  F  F  F </v>
   <v type="logical" >  F  F  F </v>
   <v type="logical" >  T  T  T </v>
   <v type="logical" >  T  T  T </v>
   <v type="logical" >  F  F  F </v>
   <v type="logical" >  F  F  F </v>
   <v type="logical" >  T  T  T </v>
   <v type="logical" >  F  F  F </v>
   <v type="logical" >  T  T  T </v>
   <v type="logical" >  T  T  T </v>
   <v type="logical" >  F  F  F </v>
   <v type="logical" >  F  F  F </v>
   <v type="logical" >  F  F  F </v>
   <v type="logical" >  T  T  T </v>
   <v type="logical" >  T  T  T </v>
   <v type="logical" >  F  F  F </v>
   <v type="logical" >  F  F  F </v>
   <v type="logical" >  T  T  T </v>
   <v type="logical" >  F  F  F </v>
   <v type="logical" >  T  T  T </v>
   <v type="logical" >  T  T  T </v>
   <v type="logical" >  F  F  F </v>
   <v type="logical" >  F  F  F </v>
   <v type="logical" >  F  F  F </v>
   <v type="logical" >  T  T  T </v>
   <v type="logical" >  T  T  T </v>
   <v type="logical" >  F  F  F </v>
   <v type="logical" >  F  F  F </v>
   <v type="logical" >  F  F  F </v>
   <v type="logical" >  T  T  T </v>
   <v type="logical" >  T  T  T </v>
   <v type="logical" >  F  F  F </v>
   <v type="logical" >  F  F  F </v>
   <v type="logical" >  T  T  T </v>
   <v type="logical" >  F  F  F </v>
   <v type="logical" >  T  T  T </v>
   <v type="logical" >  T  T  T </v>
   <v type="logical" >  F  F  F </v>
   <v type="logical" >  F  F  F </v>
   <v type="logical" >  F  F  F </v>
   <v type="logical" >  T  T  T </v>
   <v type="logical" >  T  T  T </v>
   <v type="logical" >  F  F  F </v>
   <v type="logical" >  F  F  F </v>
   <v type="logical" >  T  T  T </v>
   <v type="logical" >  T  T  T </v>
   <v type="logical" >  T  T  T </v>
   <v type="logical" >  T  T  T </v>
   <v type="logical" >  T  T  T </v>
   <v type="logical" >  T  T  T </v>
   <v type="logical" >  T  T  T </v>
   <v type="logical" >  T  T  T </v>
   <v type="logical" >  T  T  T </v>
   <v type="logical" >  T  T  T </v>
   <v type="logical" >  T  T  T </v>
   <v type="logical" >  T  T  T </v>
   <v type="logical" >  T  T  T </v>
   <v type="logical" >  T  T  T </v>
   <v type="logical" >  T  T  T </v>
   <v type="logical" >  T  T  T </v>
  </varray>
  <nose>
   <v>      -3.00000000       0.00000000       0.00010000       0.00010000 </v>
  </nose>
 </structure>
 <calculation>
  <scstep>
   <time name="dav">    7.33    7.43</time>
   <time name="total">    8.79    8.90</time>
   <energy>
    <i name="alphaZ">   1939.80149885 </i>
    <i name="ewald"> 207094.69905944 </i>
    <i name="hartreedc">-277771.79820298 </i>
    <i name="XCdc">   2791.02621123 </i>
    <i name="pawpsdc">  63387.44242396 </i>
    <i name="pawaedc"> -62600.79021333 </i>
    <i name="eentropy">     -0.04049043 </i>
    <i name="bandstr">   5027.14169941 </i>
    <i name="atom">  78630.14029091 </i>
    <i name="e_fr_energy">  18497.62227708 </i>
    <i name="e_wo_entrp">  18497.66276751 </i>
    <i name="e_0_energy">  18497.64252229 </i>
   </energy>
  </scstep>
  <scstep>
   <time name="dav">    8.05    8.05</time>
   <time name="total">    8.05    8.06</time>
   <energy>
    <i name="e_fr_energy">   5817.74092657 </i>
    <i name="e_wo_entrp">   5817.91315715 </i>
    <i name="e_0_energy">   5817.82704186 </i>
   </energy>
  </scstep>
  <scstep>
   <time name="dav">    8.91    8.92</time>
   <time name="total">    8.92    8.92</time>
   <energy>
    <i name="e_fr_energy">    241.12205021 </i>
    <i name="e_wo_entrp">    241.35329316 </i>
    <i name="e_0_energy">    241.23767168 </i>
   </energy>
  </scstep>
  <scstep>
   <time name="dav">    9.40    9.41</time>
   <time name="total">    9.40    9.41</time>
   <energy>
    <i name="e_fr_energy">  -1062.20634421 </i>
    <i name="e_wo_entrp">  -1062.13874371 </i>
    <i name="e_0_energy">  -1062.17254396 </i>
   </energy>
  </scstep>
  <scstep>
   <time name="dav">   10.72   10.73</time>
   <time name="total">   12.04   12.05</time>
   <energy>
    <i name="e_fr_energy">  -1168.66092612 </i>
    <i name="e_wo_entrp">  -1168.46970784 </i>
    <i name="e_0_energy">  -1168.56531698 </i>
   </energy>
  </scstep>
  <scstep>
   <time name="dav">   10.59   10.60</time>
   <time name="total">   13.36   13.37</time>
   <energy>
    <i name="e_fr_energy">  -1192.73099971 </i>
    <i name="e_wo_entrp">  -1192.47950812 </i>
    <i name="e_0_energy">  -1192.60525392 </i>
   </energy>
  </scstep>
  <scstep>
   <time name="dav">   11.11   11.11</time>
   <time name="total">   13.80   13.80</time>
   <energy>
    <i name="e_fr_energy">   -920.71552790 </i>
    <i name="e_wo_entrp">   -920.63010128 </i>
    <i name="e_0_energy">   -920.67281459 </i>
   </energy>
  </scstep>
  <scstep>
   <time name="dav">   11.17   11.17</time>
   <time name="total">   13.81   13.82</time>
   <energy>
    <i name="e_fr_energy">  -1225.55730117 </i>
    <i name="e_wo_entrp">  -1225.46481214 </i>
    <i name="e_0_energy">  -1225.51105665 </i>
   </energy>
  </scstep>
  <scstep>
   <time name="dav">   10.20   10.21</time>
   <time name="total">   12.89   12.90</time>
   <energy>
    <i name="e_fr_energy">  -1349.62511270 </i>
    <i name="e_wo_entrp">  -1349.41679957 </i>
    <i name="e_0_energy">  -1349.52095614 </i>
   </energy>
  </scstep>
  <scstep>
   <time name="dav">   10.25   10.26</time>
   <time name="total">   12.93   12.94</time>
   <energy>
    <i name="e_fr_energy">  -1156.36447884 </i>
    <i name="e_wo_entrp">  -1156.15590035 </i>
    <i name="e_0_energy">  -1156.26018959 </i>
   </energy>
  </scstep>
  <scstep>
   <time name="dav">    9.75    9.75</time>
   <time name="total">   12.37   12.37</time>
   <energy>
    <i name="e_fr_energy">  -1329.02682786 </i>
    <i name="e_wo_entrp">  -1328.93473014 </i>
    <i name="e_0_energy">  -1328.98077900 </i>
   </energy>
  </scstep>
  <scstep>
   <time name="dav">   10.32   10.32</time>
   <time name="total">   12.99   13.00</time>
   <energy>
    <i name="e_fr_energy">  -1207.66156884 </i>
    <i name="e_wo_entrp">  -1207.55853827 </i>
    <i name="e_0_energy">  -1207.61005356 </i>
   </energy>
  </scstep>
  <scstep>
   <time name="dav">    9.65    9.66</time>
   <time name="total">   12.30   12.30</time>
   <energy>
    <i name="e_fr_energy">  -1001.60108474 </i>
    <i name="e_wo_entrp">  -1001.55371008 </i>
    <i name="e_0_energy">  -1001.57739741 </i>
   </energy>
  </scstep>
  <scstep>
   <time name="dav">   10.50   10.50</time>
   <time name="total">   13.18   13.19</time>
   <energy>
    <i name="e_fr_energy">   -916.31387919 </i>
    <i name="e_wo_entrp">   -916.13148562 </i>
    <i name="e_0_energy">   -916.22268240 </i>
   </energy>
  </scstep>
  <scstep>
   <time name="dav">    9.46    9.47</time>
   <time name="total">   12.09   12.10</time>
   <energy>
    <i name="e_fr_energy">   -887.72338520 </i>
    <i name="e_wo_entrp">   -887.69516822 </i>
    <i name="e_0_energy">   -887.70927671 </i>
   </energy>
  </scstep>
  <scstep>
   <time name="dav">   10.72   10.72</time>
   <time name="total">   13.37   13.38</time>
   <energy>
    <i name="e_fr_energy">   -879.24009285 </i>
    <i name="e_wo_entrp">   -879.18204265 </i>
    <i name="e_0_energy">   -879.21106775 </i>
   </energy>
  </scstep>
  <scstep>
   <time name="dav">    9.83    9.84</time>
   <time name="total">   12.56   12.57</time>
   <energy>
    <i name="e_fr_energy">   -881.40476566 </i>
    <i name="e_wo_entrp">   -881.37834566 </i>
    <i name="e_0_energy">   -881.39155566 </i>
   </energy>
  </scstep>
  <scstep>
   <time name="dav">   10.12   10.13</time>
   <time name="total">   12.84   12.85</time>
   <energy>
    <i name="e_fr_energy">   -884.48693147 </i>
    <i name="e_wo_entrp">   -884.41567614 </i>
    <i name="e_0_energy">   -884.45130380 </i>
   </energy>
  </scstep>
  <scstep>
   <time name="dav">    9.36    9.36</time>
   <time name="total">   11.99   12.00</time>
   <energy>
    <i name="e_fr_energy">   -876.32443191 </i>
    <i name="e_wo_entrp">   -876.20143851 </i>
    <i name="e_0_energy">   -876.26293521 </i>
   </energy>
  </scstep>
  <scstep>
   <time name="dav">   10.14   10.14</time>
   <time name="total">   12.80   12.81</time>
   <energy>
    <i name="e_fr_energy">   -878.00831066 </i>
    <i name="e_wo_entrp">   -877.94190330 </i>
    <i name="e_0_energy">   -877.97510698 </i>
   </energy>
  </scstep>
  <scstep>
   <time name="dav">   10.30   10.30</time>
   <time name="total">   13.01   13.02</time>
   <energy>
    <i name="e_fr_energy">   -879.03328156 </i>
    <i name="e_wo_entrp">   -878.94841956 </i>
    <i name="e_0_energy">   -878.99085056 </i>
   </energy>
  </scstep>
  <scstep>
   <time name="dav">   10.86   10.86</time>
   <time name="total">   13.49   13.50</time>
   <energy>
    <i name="e_fr_energy">   -883.67827298 </i>
    <i name="e_wo_entrp">   -883.62467289 </i>
    <i name="e_0_energy">   -883.65147293 </i>
   </energy>
  </scstep>
  <scstep>
   <time name="dav">   11.04   11.04</time>
   <time name="total">   13.67   13.68</time>
   <energy>
    <i name="e_fr_energy">   -885.50082190 </i>
    <i name="e_wo_entrp">   -885.46413835 </i>
    <i name="e_0_energy">   -885.48248012 </i>
   </energy>
  </scstep>
  <scstep>
   <time name="dav">   10.67   10.68</time>
   <time name="total">   13.34   13.34</time>
   <energy>
    <i name="e_fr_energy">   -886.97910066 </i>
    <i name="e_wo_entrp">   -886.96422431 </i>
    <i name="e_0_energy">   -886.97166248 </i>
   </energy>
  </scstep>
  <scstep>
   <time name="dav">   10.96   10.97</time>
   <time name="total">   13.66   13.67</time>
   <energy>
    <i name="e_fr_energy">   -888.86557850 </i>
    <i name="e_wo_entrp">   -888.83811857 </i>
    <i name="e_0_energy">   -888.85184853 </i>
   </energy>
  </scstep>
  <scstep>
   <time name="dav">   10.69   10.70</time>
   <time name="total">   13.37   13.37</time>
   <energy>
    <i name="e_fr_energy">   -891.38136082 </i>
    <i name="e_wo_entrp">   -891.34694304 </i>
    <i name="e_0_energy">   -891.36415193 </i>
   </energy>
  </scstep>
  <scstep>
   <time name="dav">   10.59   10.60</time>
   <time name="total">   13.23   13.24</time>
   <energy>
    <i name="e_fr_energy">   -892.72308513 </i>
    <i name="e_wo_entrp">   -892.71231091 </i>
    <i name="e_0_energy">   -892.71769802 </i>
   </energy>
  </scstep>
  <scstep>
   <time name="dav">   10.71   10.72</time>
   <time name="total">   13.34   13.35</time>
   <energy>
    <i name="e_fr_energy">   -894.54472215 </i>
    <i name="e_wo_entrp">   -894.49780784 </i>
    <i name="e_0_energy">   -894.52126499 </i>
   </energy>
  </scstep>
  <scstep>
   <time name="dav">   10.49   10.50</time>
   <time name="total">   13.15   13.16</time>
   <energy>
    <i name="e_fr_energy">   -895.19263679 </i>
    <i name="e_wo_entrp">   -895.17828702 </i>
    <i name="e_0_energy">   -895.18546190 </i>
   </energy>
  </scstep>
  <scstep>
   <time name="dav">    9.16    9.17</time>
   <time name="total">   11.81   11.82</time>
   <energy>
    <i name="e_fr_energy">   -895.20840277 </i>
    <i name="e_wo_entrp">   -895.19229284 </i>
    <i name="e_0_energy">   -895.20034780 </i>
   </energy>
  </scstep>
  <scstep>
   <time name="dav">   12.08   12.09</time>
   <time name="total">   14.73   14.74</time>
   <energy>
    <i name="e_fr_energy">   -895.40615639 </i>
    <i name="e_wo_entrp">   -895.37568421 </i>
    <i name="e_0_energy">   -895.39092030 </i>
   </energy>
  </scstep>
  <scstep>
   <time name="dav">   10.35   10.36</time>
   <time name="total">   13.05   13.05</time>
   <energy>
    <i name="e_fr_energy">   -895.25534583 </i>
    <i name="e_wo_entrp">   -895.22558683 </i>
    <i name="e_0_energy">   -895.24046633 </i>
   </energy>
  </scstep>
  <scstep>
   <time name="dav">    9.96    9.96</time>
   <time name="total">   12.58   12.59</time>
   <energy>
    <i name="e_fr_energy">   -895.27471164 </i>
    <i name="e_wo_entrp">   -895.25553736 </i>
    <i name="e_0_energy">   -895.26512450 </i>
   </energy>
  </scstep>
  <scstep>
   <time name="dav">   10.46   10.46</time>
   <time name="total">   13.15   13.16</time>
   <energy>
    <i name="e_fr_energy">   -895.23912156 </i>
    <i name="e_wo_entrp">   -895.22873689 </i>
    <i name="e_0_energy">   -895.23392923 </i>
   </energy>
  </scstep>
  <scstep>
   <time name="dav">    9.03    9.04</time>
   <time name="total">   11.71   11.72</time>
   <energy>
    <i name="e_fr_energy">   -895.38074202 </i>
    <i name="e_wo_entrp">   -895.36830132 </i>
    <i name="e_0_energy">   -895.37452167 </i>
   </energy>
  </scstep>
  <scstep>
   <time name="dav">    9.82    9.82</time>
   <time name="total">   12.47   12.48</time>
   <energy>
    <i name="e_fr_energy">   -896.63942560 </i>
    <i name="e_wo_entrp">   -896.62774215 </i>
    <i name="e_0_energy">   -896.63358387 </i>
   </energy>
  </scstep>
  <scstep>
   <time name="dav">    9.89    9.89</time>
   <time name="total">   12.55   12.56</time>
   <energy>
    <i name="e_fr_energy">   -900.07643360 </i>
    <i name="e_wo_entrp">   -899.98033634 </i>
    <i name="e_0_energy">   -900.02838497 </i>
   </energy>
  </scstep>
  <scstep>
   <time name="dav">   10.56   10.57</time>
   <time name="total">   13.19   13.20</time>
   <energy>
    <i name="e_fr_energy">   -900.75409134 </i>
    <i name="e_wo_entrp">   -900.65095428 </i>
    <i name="e_0_energy">   -900.70252281 </i>
   </energy>
  </scstep>
  <scstep>
   <time name="dav">    9.99   10.00</time>
   <time name="total">   12.61   12.62</time>
   <energy>
    <i name="e_fr_energy">   -902.35976889 </i>
    <i name="e_wo_entrp">   -902.25679866 </i>
    <i name="e_0_energy">   -902.30828378 </i>
   </energy>
  </scstep>
  <scstep>
   <time name="dav">   10.38   10.39</time>
   <time name="total">   13.08   13.09</time>
   <energy>
    <i name="e_fr_energy">   -903.24885378 </i>
    <i name="e_wo_entrp">   -903.19188736 </i>
    <i name="e_0_energy">   -903.22037057 </i>
   </energy>
  </scstep>
  <scstep>
   <time name="dav">    9.89    9.89</time>
   <time name="total">   12.56   12.56</time>
   <energy>
    <i name="e_fr_energy">   -904.92640564 </i>
    <i name="e_wo_entrp">   -904.86631979 </i>
    <i name="e_0_energy">   -904.89636272 </i>
   </energy>
  </scstep>
  <scstep>
   <time name="dav">   10.09   10.10</time>
   <time name="total">   12.76   12.77</time>
   <energy>
    <i name="e_fr_energy">   -906.50983821 </i>
    <i name="e_wo_entrp">   -906.45328283 </i>
    <i name="e_0_energy">   -906.48156052 </i>
   </energy>
  </scstep>
  <scstep>
   <time name="dav">    9.62    9.63</time>
   <time name="total">   12.26   12.26</time>
   <energy>
    <i name="e_fr_energy">   -907.75122696 </i>
    <i name="e_wo_entrp">   -907.69759515 </i>
    <i name="e_0_energy">   -907.72441106 </i>
   </energy>
  </scstep>
  <scstep>
   <time name="dav">    9.70    9.70</time>
   <time name="total">   12.33   12.34</time>
   <energy>
    <i name="e_fr_energy">   -908.87311316 </i>
    <i name="e_wo_entrp">   -908.83774941 </i>
    <i name="e_0_energy">   -908.85543129 </i>
   </energy>
  </scstep>
  <scstep>
   <time name="dav">   10.00   10.00</time>
   <time name="total">   12.67   12.68</time>
   <energy>
    <i name="e_fr_energy">   -909.79903454 </i>
    <i name="e_wo_entrp">   -909.76519041 </i>
    <i name="e_0_energy">   -909.78211247 </i>
   </energy>
  </scstep>
  <scstep>
   <time name="dav">    9.52    9.53</time>
   <time name="total">   12.18   12.19</time>
   <energy>
    <i name="e_fr_energy">   -910.18413314 </i>
    <i name="e_wo_entrp">   -910.15381247 </i>
    <i name="e_0_energy">   -910.16897281 </i>
   </energy>
  </scstep>
  <scstep>
   <time name="dav">   10.45   10.46</time>
   <time name="total">   13.13   13.14</time>
   <energy>
    <i name="e_fr_energy">   -910.63697459 </i>
    <i name="e_wo_entrp">   -910.60860455 </i>
    <i name="e_0_energy">   -910.62278957 </i>
   </energy>
  </scstep>
  <scstep>
   <time name="dav">    9.89    9.90</time>
   <time name="total">   12.48   12.49</time>
   <energy>
    <i name="e_fr_energy">   -911.01276029 </i>
    <i name="e_wo_entrp">   -910.99180055 </i>
    <i name="e_0_energy">   -911.00228042 </i>
   </energy>
  </scstep>
  <scstep>
   <time name="dav">    9.69    9.69</time>
   <time name="total">   12.42   12.42</time>
   <energy>
    <i name="e_fr_energy">   -911.13900774 </i>
    <i name="e_wo_entrp">   -911.11997620 </i>
    <i name="e_0_energy">   -911.12949197 </i>
   </energy>
  </scstep>
  <scstep>
   <time name="dav">    9.80    9.81</time>
   <time name="total">   12.45   12.46</time>
   <energy>
    <i name="e_fr_energy">   -911.35948883 </i>
    <i name="e_wo_entrp">   -911.34612931 </i>
    <i name="e_0_energy">   -911.35280907 </i>
   </energy>
  </scstep>
  <scstep>
   <time name="dav">   10.66   10.67</time>
   <time name="total">   13.25   13.26</time>
   <energy>
    <i name="e_fr_energy">   -911.50380188 </i>
    <i name="e_wo_entrp">   -911.46588857 </i>
    <i name="e_0_energy">   -911.48484523 </i>
   </energy>
  </scstep>
  <scstep>
   <time name="dav">   10.86   10.86</time>
   <time name="total">   13.48   13.49</time>
   <energy>
    <i name="e_fr_energy">   -911.50430878 </i>
    <i name="e_wo_entrp">   -911.47399238 </i>
    <i name="e_0_energy">   -911.48915058 </i>
   </energy>
  </scstep>
  <scstep>
   <time name="dav">    9.90    9.90</time>
   <time name="total">   12.60   12.61</time>
   <energy>
    <i name="e_fr_energy">   -911.50345655 </i>
    <i name="e_wo_entrp">   -911.47368112 </i>
    <i name="e_0_energy">   -911.48856884 </i>
   </energy>
  </scstep>
  <scstep>
   <time name="dav">   11.22   11.23</time>
   <time name="total">   13.89   13.90</time>
   <energy>
    <i name="e_fr_energy">   -911.51234048 </i>
    <i name="e_wo_entrp">   -911.48261039 </i>
    <i name="e_0_energy">   -911.49747544 </i>
   </energy>
  </scstep>
  <scstep>
   <time name="dav">   10.76   10.77</time>
   <time name="total">   13.41   13.42</time>
   <energy>
    <i name="e_fr_energy">   -911.55365241 </i>
    <i name="e_wo_entrp">   -911.51241046 </i>
    <i name="e_0_energy">   -911.53303143 </i>
   </energy>
  </scstep>
  <scstep>
   <time name="dav">   10.96   10.96</time>
   <time name="total">   13.59   13.60</time>
   <energy>
    <i name="e_fr_energy">   -911.78319026 </i>
    <i name="e_wo_entrp">   -911.73676637 </i>
    <i name="e_0_energy">   -911.75997831 </i>
   </energy>
  </scstep>
  <scstep>
   <time name="dav">   10.09   10.09</time>
   <time name="total">   12.75   12.76</time>
   <energy>
    <i name="e_fr_energy">   -911.69461043 </i>
    <i name="e_wo_entrp">   -911.65585141 </i>
    <i name="e_0_energy">   -911.67523092 </i>
   </energy>
  </scstep>
  <scstep>
   <time name="dav">   10.95   10.95</time>
   <time name="total">   13.60   13.60</time>
   <energy>
    <i name="e_fr_energy">   -911.55768665 </i>
    <i name="e_wo_entrp">   -911.53686175 </i>
    <i name="e_0_energy">   -911.54727420 </i>
   </energy>
  </scstep>
  <scstep>
   <time name="dav">   10.57   10.58</time>
   <time name="total">   13.22   13.23</time>
   <energy>
    <i name="e_fr_energy">   -911.46419145 </i>
    <i name="e_wo_entrp">   -911.45382701 </i>
    <i name="e_0_energy">   -911.45900923 </i>
   </energy>
  </scstep>
  <scstep>
   <time name="dav">   10.55   10.56</time>
   <time name="total">   13.16   13.17</time>
   <energy>
    <i name="e_fr_energy">   -911.48329452 </i>
    <i name="e_wo_entrp">   -911.43615933 </i>
    <i name="e_0_energy">   -911.45972692 </i>
   </energy>
  </scstep>
  <scstep>
   <time name="dav">    9.61    9.61</time>
   <time name="total">   12.24   12.24</time>
   <energy>
    <i name="e_fr_energy">   -911.51165775 </i>
    <i name="e_wo_entrp">   -911.43712259 </i>
    <i name="e_0_energy">   -911.47439017 </i>
   </energy>
  </scstep>
  <scstep>
   <time name="dav">   10.86   10.87</time>
   <time name="total">   13.55   13.56</time>
   <energy>
    <i name="e_fr_energy">   -911.51872786 </i>
    <i name="e_wo_entrp">   -911.46133952 </i>
    <i name="e_0_energy">   -911.49003369 </i>
   </energy>
  </scstep>
  <scstep>
   <time name="dav">    9.99   10.00</time>
   <time name="total">   12.61   12.61</time>
   <energy>
    <i name="e_fr_energy">   -911.74952411 </i>
    <i name="e_wo_entrp">   -911.67189711 </i>
    <i name="e_0_energy">   -911.71071061 </i>
   </energy>
  </scstep>
  <scstep>
   <time name="dav">   10.27   10.28</time>
   <time name="total">   12.92   12.93</time>
   <energy>
    <i name="e_fr_energy">   -911.97610617 </i>
    <i name="e_wo_entrp">   -911.90213061 </i>
    <i name="e_0_energy">   -911.93911839 </i>
   </energy>
  </scstep>
  <scstep>
   <time name="dav">   10.18   10.19</time>
   <time name="total">   12.84   12.85</time>
   <energy>
    <i name="e_fr_energy">   -911.95790565 </i>
    <i name="e_wo_entrp">   -911.87979832 </i>
    <i name="e_0_energy">   -911.91885198 </i>
   </energy>
  </scstep>
  <scstep>
   <time name="dav">   10.36   10.36</time>
   <time name="total">   13.04   13.05</time>
   <energy>
    <i name="e_fr_energy">   -911.97418576 </i>
    <i name="e_wo_entrp">   -911.89355318 </i>
    <i name="e_0_energy">   -911.93386947 </i>
   </energy>
  </scstep>
  <scstep>
   <time name="dav">   10.18   10.19</time>
   <time name="total">   12.84   12.84</time>
   <energy>
    <i name="e_fr_energy">   -911.99615165 </i>
    <i name="e_wo_entrp">   -911.92980745 </i>
    <i name="e_0_energy">   -911.96297955 </i>
   </energy>
  </scstep>
  <scstep>
   <time name="dav">   10.46   10.47</time>
   <time name="total">   13.12   13.13</time>
   <energy>
    <i name="e_fr_energy">   -911.99067135 </i>
    <i name="e_wo_entrp">   -911.93932456 </i>
    <i name="e_0_energy">   -911.96499795 </i>
   </energy>
  </scstep>
  <scstep>
   <time name="dav">    9.71    9.72</time>
   <time name="total">   12.39   12.39</time>
   <energy>
    <i name="e_fr_energy">   -912.05525933 </i>
    <i name="e_wo_entrp">   -912.00190267 </i>
    <i name="e_0_energy">   -912.02858100 </i>
   </energy>
  </scstep>
  <scstep>
   <time name="dav">   10.09   10.09</time>
   <time name="total">   12.79   12.80</time>
   <energy>
    <i name="e_fr_energy">   -912.10410555 </i>
    <i name="e_wo_entrp">   -912.05343361 </i>
    <i name="e_0_energy">   -912.07876958 </i>
   </energy>
  </scstep>
  <scstep>
   <time name="dav">   10.29   10.29</time>
   <time name="total">   12.97   12.98</time>
   <energy>
    <i name="e_fr_energy">   -912.18181095 </i>
    <i name="e_wo_entrp">   -912.12904617 </i>
    <i name="e_0_energy">   -912.15542856 </i>
   </energy>
  </scstep>
  <scstep>
   <time name="dav">    9.61    9.61</time>
   <time name="total">   12.27   12.27</time>
   <energy>
    <i name="e_fr_energy">   -912.21560240 </i>
    <i name="e_wo_entrp">   -912.16538685 </i>
    <i name="e_0_energy">   -912.19049462 </i>
   </energy>
  </scstep>
  <scstep>
   <time name="dav">   10.77   10.78</time>
   <time name="total">   13.42   13.43</time>
   <energy>
    <i name="e_fr_energy">   -912.24198260 </i>
    <i name="e_wo_entrp">   -912.20105106 </i>
    <i name="e_0_energy">   -912.22151683 </i>
   </energy>
  </scstep>
  <scstep>
   <time name="dav">    9.70    9.71</time>
   <time name="total">   12.38   12.39</time>
   <energy>
    <i name="e_fr_energy">   -912.27047001 </i>
    <i name="e_wo_entrp">   -912.23596725 </i>
    <i name="e_0_energy">   -912.25321863 </i>
   </energy>
  </scstep>
  <scstep>
   <time name="dav">   10.09   10.09</time>
   <time name="total">   12.69   12.70</time>
   <energy>
    <i name="e_fr_energy">   -912.29133253 </i>
    <i name="e_wo_entrp">   -912.26376934 </i>
    <i name="e_0_energy">   -912.27755093 </i>
   </energy>
  </scstep>
  <scstep>
   <time name="dav">    9.70    9.70</time>
   <time name="total">   12.37   12.38</time>
   <energy>
    <i name="e_fr_energy">   -912.29521520 </i>
    <i name="e_wo_entrp">   -912.26795761 </i>
    <i name="e_0_energy">   -912.28158640 </i>
   </energy>
  </scstep>
  <scstep>
   <time name="dav">   10.67   10.67</time>
   <time name="total">   13.34   13.35</time>
   <energy>
    <i name="e_fr_energy">   -912.29402344 </i>
    <i name="e_wo_entrp">   -912.26640515 </i>
    <i name="e_0_energy">   -912.28021429 </i>
   </energy>
  </scstep>
  <scstep>
   <time name="dav">    9.71    9.72</time>
   <time name="total">   12.38   12.39</time>
   <energy>
    <i name="e_fr_energy">   -912.30120545 </i>
    <i name="e_wo_entrp">   -912.27229574 </i>
    <i name="e_0_energy">   -912.28675060 </i>
   </energy>
  </scstep>
  <scstep>
   <time name="dav">    9.52    9.53</time>
   <time name="total">   12.14   12.14</time>
   <energy>
    <i name="e_fr_energy">   -912.31832343 </i>
    <i name="e_wo_entrp">   -912.28899260 </i>
    <i name="e_0_energy">   -912.30365802 </i>
   </energy>
  </scstep>
  <scstep>
   <time name="dav">    9.99   10.00</time>
   <time name="total">   12.61   12.61</time>
   <energy>
    <i name="e_fr_energy">   -912.32505530 </i>
    <i name="e_wo_entrp">   -912.29625034 </i>
    <i name="e_0_energy">   -912.31065282 </i>
   </energy>
  </scstep>
  <scstep>
   <time name="dav">    9.98    9.99</time>
   <time name="total">   12.59   12.60</time>
   <energy>
    <i name="e_fr_energy">   -912.32984013 </i>
    <i name="e_wo_entrp">   -912.30149432 </i>
    <i name="e_0_energy">   -912.31566723 </i>
   </energy>
  </scstep>
  <scstep>
   <time name="dav">   10.55   10.56</time>
   <time name="total">   13.21   13.22</time>
   <energy>
    <i name="e_fr_energy">   -912.33287045 </i>
    <i name="e_wo_entrp">   -912.30418954 </i>
    <i name="e_0_energy">   -912.31852999 </i>
   </energy>
  </scstep>
  <scstep>
   <time name="dav">   10.08   10.08</time>
   <time name="total">   12.72   12.73</time>
   <energy>
    <i name="e_fr_energy">   -912.33557951 </i>
    <i name="e_wo_entrp">   -912.30741780 </i>
    <i name="e_0_energy">   -912.32149866 </i>
   </energy>
  </scstep>
  <scstep>
   <time name="dav">   10.36   10.37</time>
   <time name="total">   12.97   12.98</time>
   <energy>
    <i name="e_fr_energy">   -912.33727092 </i>
    <i name="e_wo_entrp">   -912.30965989 </i>
    <i name="e_0_energy">   -912.32346540 </i>
   </energy>
  </scstep>
  <scstep>
   <time name="dav">   10.18   10.18</time>
   <time name="total">   12.86   12.87</time>
   <energy>
    <i name="e_fr_energy">   -912.33854231 </i>
    <i name="e_wo_entrp">   -912.31117678 </i>
    <i name="e_0_energy">   -912.32485954 </i>
   </energy>
  </scstep>
  <scstep>
   <time name="dav">   10.18   10.19</time>
   <time name="total">   12.84   12.84</time>
   <energy>
    <i name="e_fr_energy">   -912.33964773 </i>
    <i name="e_wo_entrp">   -912.31209907 </i>
    <i name="e_0_energy">   -912.32587340 </i>
   </energy>
  </scstep>
  <scstep>
   <time name="dav">   10.27   10.28</time>
   <time name="total">   12.94   12.95</time>
   <energy>
    <i name="e_fr_energy">   -912.34023168 </i>
    <i name="e_wo_entrp">   -912.31259819 </i>
    <i name="e_0_energy">   -912.32641493 </i>
   </energy>
  </scstep>
  <scstep>
   <time name="dav">    9.61    9.62</time>
   <time name="total">   12.28   12.29</time>
   <energy>
    <i name="e_fr_energy">   -912.34075536 </i>
    <i name="e_wo_entrp">   -912.31308347 </i>
    <i name="e_0_energy">   -912.32691941 </i>
   </energy>
  </scstep>
  <scstep>
   <time name="dav">    9.99    9.99</time>
   <time name="total">   12.65   12.66</time>
   <energy>
    <i name="e_fr_energy">   -912.34148659 </i>
    <i name="e_wo_entrp">   -912.31375633 </i>
    <i name="e_0_energy">   -912.32762146 </i>
   </energy>
  </scstep>
  <scstep>
   <time name="dav">    9.81    9.81</time>
   <time name="total">   11.18   11.19</time>
   <energy>
    <i name="alphaZ">   1939.80149885 </i>
    <i name="ewald"> 207094.69905944 </i>
    <i name="hartreedc">-279549.45488247 </i>
    <i name="XCdc">   2876.71482176 </i>
    <i name="pawpsdc">  75227.15802614 </i>
    <i name="pawaedc"> -74382.67007323 </i>
    <i name="eentropy">     -0.02782218 </i>
    <i name="bandstr"> -12748.70273253 </i>
    <i name="atom">  78630.14029091 </i>
[...]
   </energy>
  </scstep>
  <structure>
   <crystal>
    <varray name="basis" >
     <v>      15.46430016       0.00000000       0.00000000 </v>
     <v>      -7.73215008      13.39247679       0.00000000 </v>
     <v>       0.00000000       0.00000000      21.04820061 </v>
    </varray>
    <i name="volume">   4359.19349823 </i>
    <varray name="rec_basis" >
     <v>       0.06466507       0.03733439       0.00000000 </v>
     <v>       0.00000000       0.07466879       0.00000000 </v>
     <v>       0.00000000       0.00000000       0.04751000 </v>
    </varray>
   </crystal>
   <varray name="positions" >
    <v>       0.00130152       0.99935769       0.46063229 </v>
    <v>       0.16667000       0.08333000       0.30996000 </v>
    <v>       0.24531012       0.99414173       0.45969820 </v>
    <v>       0.41667000       0.08333000       0.30996000 </v>
    <v>       0.49748397       0.00081437       0.46290141 </v>
    <v>       0.66667000       0.08333000       0.30996000 </v>
    <v>       0.75730449       0.00294811       0.45998005 </v>
    <v>       0.91667000       0.08333000       0.30996000 </v>
    <v>       0.99958459       0.24935053       0.46061536 </v>
    <v>       0.16667000       0.33333000       0.30996000 </v>
    <v>       0.24768628       0.25013027       0.46348886 </v>
    <v>       0.41667000       0.33333000       0.30996000 </v>
    <v>       0.50335572       0.24710772       0.46439401 </v>
    <v>       0.66667000       0.33333000       0.30996000 </v>
    <v>       0.75140504       0.24929355       0.46014582 </v>
    <v>       0.91667000       0.33333000       0.30996000 </v>
    <v>       0.00191862       0.49954603       0.46067927 </v>
    <v>       0.16667000       0.58333000       0.30996000 </v>
    <v>       0.24552985       0.49318068       0.45937291 </v>
    <v>       0.41667000       0.58333000       0.30996000 </v>
    <v>       0.49773937       0.50108997       0.46298483 </v>
    <v>       0.66667000       0.58333000       0.30996000 </v>
    <v>       0.75815265       0.50284284       0.45982599 </v>
    <v>       0.91667000       0.58333000       0.30996000 </v>
    <v>       0.99964886       0.74961893       0.46055728 </v>
    <v>       0.16667000       0.83333000       0.30996000 </v>
    <v>       0.24730173       0.75084858       0.46311610 </v>
    <v>       0.41667000       0.83333000       0.30996000 </v>
    <v>       0.50428844       0.74803274       0.46433985 </v>
    <v>       0.66667000       0.83333000       0.30996000 </v>
    <v>       0.75164063       0.74925679       0.46014257 </v>
    <v>       0.91667000       0.83333000       0.30996000 </v>
    <v>       0.08333000       0.16667000       0.27247000 </v>
    <v>       0.16672584       0.08329253       0.42260347 </v>
    <v>       0.08366340       0.16678522       0.49809872 </v>
    <v>       0.00000000       0.00000000       0.34745000 </v>
    <v>       0.16667000       0.08333000       0.19748000 </v>
    <v>       0.21553834       0.05872536       0.60535552 </v>
    <v>       0.33333000       0.16667000       0.27247000 </v>
    <v>       0.41705673       0.08576231       0.42369392 </v>
    <v>       0.32428202       0.15568268       0.50048434 </v>
    <v>       0.25000000       0.00000000       0.34745000 </v>
    <v>       0.41667000       0.08333000       0.19748000 </v>
    <v>       0.58333000       0.16667000       0.27247000 </v>
    <v>       0.66759070       0.08198279       0.42218143 </v>
    <v>       0.58660098       0.16485797       0.49542807 </v>
    <v>       0.50000000       0.00000000       0.34745000 </v>
    <v>       0.66667000       0.08333000       0.19748000 </v>
    <v>       0.68619876       0.03704643       0.60893852 </v>
    <v>       0.83333000       0.16667000       0.27247000 </v>
    <v>       0.91877738       0.08378457       0.42182685 </v>
    <v>       0.83640842       0.16796782       0.49688639 </v>
    <v>       0.75000000       0.00000000       0.34745000 </v>
    <v>       0.91667000       0.08333000       0.19748000 </v>
    <v>       0.08333000       0.41667000       0.27247000 </v>
    <v>       0.16374518       0.33026974       0.42141706 </v>
    <v>       0.08181237       0.41390189       0.49692493 </v>
    <v>       0.00000000       0.25000000       0.34745000 </v>
    <v>       0.16667000       0.33333000       0.19748000 </v>
    <v>       0.33333000       0.41667000       0.27247000 </v>
    <v>       0.42148467       0.33255506       0.42765317 </v>
    <v>       0.32801626       0.41498984       0.49239338 </v>
    <v>       0.25000000       0.25000000       0.34745000 </v>
    <v>       0.41667000       0.33333000       0.19748000 </v>
    <v>       0.47492124       0.27532382       0.57093242 </v>
    <v>       0.58333000       0.41667000       0.27247000 </v>
    <v>       0.66664931       0.33474118       0.42421507 </v>
    <v>       0.59842661       0.42924949       0.50553960 </v>
    <v>       0.50000000       0.25000000       0.34745000 </v>
    <v>       0.66667000       0.33333000       0.19748000 </v>
    <v>       0.83333000       0.41667000       0.27247000 </v>
    <v>       0.91667454       0.33269920       0.42162580 </v>
    <v>       0.83864031       0.41836246       0.49606045 </v>
    <v>       0.75000000       0.25000000       0.34745000 </v>
    <v>       0.91667000       0.33333000       0.19748000 </v>
    <v>       0.08333000       0.66667000       0.27247000 </v>
    <v>       0.16768880       0.58345829       0.42259326 </v>
    <v>       0.08375019       0.66664339       0.49798745 </v>
    <v>       0.00000000       0.50000000       0.34745000 </v>
    <v>       0.16667000       0.58333000       0.19748000 </v>
    <v>       0.21057297       0.56304691       0.61357277 </v>
    <v>       0.33333000       0.66667000       0.27247000 </v>
    <v>       0.41679463       0.58582692       0.42411931 </v>
    <v>       0.32142046       0.65354732       0.50361254 </v>
    <v>       0.25000000       0.50000000       0.34745000 </v>
    <v>       0.41667000       0.58333000       0.19748000 </v>
    <v>       0.58333000       0.66667000       0.27247000 </v>
    <v>       0.66719742       0.58082890       0.42242517 </v>
    <v>       0.58659733       0.66471532       0.49525569 </v>
    <v>       0.50000000       0.50000000       0.34745000 </v>
    <v>       0.66667000       0.58333000       0.19748000 </v>
    <v>       0.68690627       0.53906981       0.61777359 </v>
    <v>       0.83333000       0.66667000       0.27247000 </v>
    <v>       0.91941356       0.58407030       0.42175727 </v>
    <v>       0.83614656       0.66730718       0.49703556 </v>
    <v>       0.75000000       0.50000000       0.34745000 </v>
    <v>       0.91667000       0.58333000       0.19748000 </v>
    <v>       0.08333000       0.91667000       0.27247000 </v>
    <v>       0.16375250       0.83068524       0.42150761 </v>
    <v>       0.08070741       0.91319635       0.49663804 </v>
    <v>       0.00000000       0.75000000       0.34745000 </v>
    <v>       0.16667000       0.83333000       0.19748000 </v>
    <v>       0.33333000       0.91667000       0.27247000 </v>
    <v>       0.41930617       0.83070916       0.42759021 </v>
    <v>       0.32819943       0.91624032       0.49222312 </v>
    <v>       0.25000000       0.75000000       0.34745000 </v>
    <v>       0.41667000       0.83333000       0.19748000 </v>
    <v>       0.47641996       0.77391829       0.57154840 </v>
    <v>       0.58333000       0.91667000       0.27247000 </v>
    <v>       0.66691803       0.83402947       0.42370262 </v>
    <v>       0.59592824       0.92666850       0.50163876 </v>
    <v>       0.50000000       0.75000000       0.34745000 </v>
    <v>       0.66667000       0.83333000       0.19748000 </v>
    <v>       0.83333000       0.91667000       0.27247000 </v>
    <v>       0.91618490       0.83223220       0.42140707 </v>
    <v>       0.83825419       0.91776375       0.49609922 </v>
    <v>       0.75000000       0.75000000       0.34745000 </v>
    <v>       0.91667000       0.83333000       0.19748000 </v>
    <v>       0.49750657       0.45826655       0.58212915 </v>
    <v>       0.29430180       0.75398136       0.58205659 </v>
    <v>       0.49424116       0.95127339       0.58188829 </v>
    <v>       0.53750709       0.37457545       0.68102746 </v>
    <v>       0.37393113       0.70739698       0.68068485 </v>
    <v>       0.54790084       0.87811318       0.68154316 </v>
    <v>       0.65654288       0.36055648       0.59213339 </v>
    <v>       0.38876260       0.59214091       0.58864247 </v>
    <v>       0.65775182       0.85831154       0.58755508 </v>
    <v>       0.29609945       0.25162387       0.58429171 </v>
    <v>       0.37131789       0.19582132       0.68164478 </v>
    <v>       0.39646514       0.09374478       0.58508577 </v>
    <v>       0.58405189       0.91447173       0.60312763 </v>
    <v>       0.33206293       0.66523391       0.60376780 </v>
    <v>       0.58413381       0.41861980       0.60535587 </v>
    <v>       0.33689040       0.16386674       0.60273876 </v>
   </varray>
  </structure>
  <varray name="forces" >
   <v>      -0.00896894      -0.00856073      -0.01504395 </v>
   <v>      -0.03526088       0.09449717      -0.03968644 </v>
   <v>      -0.00049519       0.02555928       0.01759550 </v>
   <v>       0.05498309       0.15388015       0.08208235 </v>
   <v>      -0.00683032       0.02302191      -0.00484245 </v>
   <v>      -0.04160951      -0.07187348       0.07552656 </v>
   <v>      -0.03926130       0.00720205       0.02005940 </v>
   <v>       0.06101302       0.04020860      -0.24910285 </v>
   <v>      -0.01353273       0.02819781      -0.02158244 </v>
   <v>       0.02383953      -0.15067952      -0.24403755 </v>
   <v>      -0.00503013       0.01106831      -0.01700834 </v>
   <v>       0.12559492      -0.06341060       0.28241663 </v>
   <v>      -0.02125993       0.00140982      -0.03367618 </v>
   <v>      -0.15324777      -0.06230189       0.03847030 </v>
   <v>       0.01215081      -0.01519431      -0.00118565 </v>
   <v>       0.04759491      -0.00098447      -0.11653695 </v>
   <v>      -0.00776327      -0.01323331      -0.03354120 </v>
   <v>      -0.03112916       0.10609298      -0.04667239 </v>
   <v>      -0.02495903       0.00512410       0.01589911 </v>
   <v>       0.06723375       0.15966531       0.06375314 </v>
   <v>      -0.01275104       0.01994971      -0.02821204 </v>
   <v>      -0.04816004      -0.08248799       0.07133525 </v>
   <v>      -0.02597556       0.04160682       0.01983310 </v>
   <v>       0.07321899       0.05194018      -0.26924108 </v>
   <v>      -0.01280604       0.02133607      -0.01959680 </v>
   <v>       0.01809360      -0.12103098      -0.23045494 </v>
   <v>       0.00271123       0.02012115      -0.01423442 </v>
   <v>       0.10659248      -0.08179978       0.27403792 </v>
   <v>      -0.03129992       0.01247951      -0.05830135 </v>
   <v>      -0.13352353      -0.05653869       0.03582764 </v>
   <v>      -0.02691773       0.00644345      -0.00464415 </v>
   <v>       0.04201682      -0.00052343      -0.13745857 </v>
   <v>      -0.00502780      -0.00850385      -0.23330896 </v>
   <v>       0.00196957       0.00008954      -0.02513282 </v>
   <v>      -0.00210928      -0.01413411       0.01785034 </v>
   <v>       0.05247715      -0.01952372       0.29871976 </v>
   <v>      -0.00179792       0.00060385      -0.04528855 </v>
   <v>      -0.04269660      -0.01087039       0.01339394 </v>
   <v>       0.00284622       0.02242214      -0.22538690 </v>
   <v>       0.03259265      -0.02285101      -0.04428777 </v>
   <v>      -0.00813352       0.05744564       0.02066081 </v>
   <v>       0.01787376      -0.10320350       0.30155982 </v>
   <v>       0.00063924       0.00218953      -0.03942277 </v>
   <v>      -0.00006164       0.01912278      -0.23084883 </v>
   <v>       0.00832690      -0.00179042       0.00016242 </v>
   <v>       0.02401892      -0.00942135       0.00824770 </v>
   <v>      -0.13497393      -0.14906806       0.44173188 </v>
   <v>      -0.00153595       0.00105040      -0.05313029 </v>
   <v>      -0.01390316       0.02346237      -0.02239045 </v>
   <v>       0.00581229      -0.00452840      -0.22199322 </v>
   <v>      -0.01430124       0.01916771      -0.00554733 </v>
   <v>       0.00271448      -0.01399041      -0.01667785 </v>
   <v>       0.19228693       0.00095413       0.29431348 </v>
   <v>       0.00181852       0.00192870      -0.05679115 </v>
   <v>       0.01177338       0.01215816      -0.21900718 </v>
   <v>      -0.01476099      -0.00651618       0.01069753 </v>
   <v>       0.00841397       0.00098618       0.00878698 </v>
   <v>      -0.04879425      -0.04733281       0.21831813 </v>
   <v>      -0.00213983      -0.00342341      -0.06378362 </v>
   <v>       0.03239153       0.00568996      -0.21009965 </v>
   <v>       0.00433726       0.00383996       0.00400035 </v>
   <v>       0.01492582       0.02633509       0.01619779 </v>
   <v>       0.17793825       0.12586769       0.41274388 </v>
   <v>       0.00125794      -0.00131524       0.01439004 </v>
   <v>      -0.03953808      -0.09358529       0.04417747 </v>
   <v>      -0.01335057      -0.02390867      -0.22584259 </v>
   <v>      -0.00104341       0.01998288      -0.03071095 </v>
   <v>      -0.04211116      -0.02273508      -0.02975282 </v>
   <v>       0.06656653       0.02320878       0.16046666 </v>
   <v>      -0.00078538      -0.00227412      -0.02570942 </v>
   <v>      -0.02562495      -0.00705681      -0.21145071 </v>
   <v>       0.00977599      -0.00082887      -0.00480499 </v>
   <v>      -0.02410659       0.01179213       0.03404307 </v>
   <v>      -0.08020432       0.02435238       0.38259802 </v>
   <v>       0.00037541      -0.00141319      -0.06621553 </v>
   <v>      -0.00490837      -0.01128834      -0.23209113 </v>
   <v>      -0.00604121       0.01291239      -0.01743337 </v>
   <v>      -0.00717660      -0.01189245       0.02236448 </v>
   <v>       0.08123554      -0.00690517       0.31052737 </v>
   <v>      -0.00229055       0.00057789      -0.04343252 </v>
   <v>      -0.02240015       0.05073381      -0.02318422 </v>
   <v>       0.00908204       0.01499410      -0.22126459 </v>
   <v>      -0.02390840      -0.01469999      -0.01954887 </v>
   <v>       0.01425768       0.07366616      -0.01940452 </v>
   <v>       0.05150277      -0.12359592       0.29521374 </v>
   <v>       0.00138420       0.00194835      -0.02907878 </v>
   <v>      -0.00480192       0.00603228      -0.22881870 </v>
   <v>      -0.00319594      -0.01490012       0.00322538 </v>
   <v>      -0.00170802      -0.01825732       0.02810372 </v>
   <v>      -0.16352275      -0.09515190       0.41819351 </v>
   <v>      -0.00104549       0.00072412      -0.04629789 </v>
   <v>      -0.10537084      -0.09970472      -0.06246242 </v>
   <v>       0.00310389      -0.01252783      -0.21997637 </v>
   <v>      -0.03982283       0.00457616      -0.01011788 </v>
   <v>      -0.00185012      -0.00163168      -0.00384842 </v>
   <v>       0.22346929       0.00231180       0.28164286 </v>
   <v>       0.00166841       0.00247653      -0.05636976 </v>
   <v>       0.01205499       0.01141659      -0.22273146 </v>
   <v>      -0.01035255      -0.03274042      -0.00496643 </v>
   <v>      -0.00559971       0.01453956      -0.00273566 </v>
   <v>      -0.04441381      -0.04295989       0.20969126 </v>
   <v>      -0.00179351      -0.00232584      -0.06340728 </v>
   <v>       0.03477522      -0.00346525      -0.21428571 </v>
   <v>       0.00981082      -0.01132291       0.01735895 </v>
   <v>       0.02564319      -0.03452864       0.00364202 </v>
   <v>       0.12109552       0.12258461       0.36380301 </v>
   <v>       0.00108372       0.00097950       0.01439671 </v>
   <v>      -0.03894303       0.00547104       0.00131905 </v>
   <v>      -0.02054045      -0.02629613      -0.22650878 </v>
   <v>       0.00336431       0.02036594      -0.00788166 </v>
   <v>      -0.06244264      -0.02832909      -0.04228303 </v>
   <v>       0.06112687       0.02006802       0.17602774 </v>
   <v>      -0.00042743      -0.00087723      -0.03476367 </v>
   <v>      -0.02212947      -0.00375733      -0.21646093 </v>
   <v>       0.00940440       0.00264184       0.01651915 </v>
   <v>      -0.01185720       0.03264286       0.01705540 </v>
   <v>      -0.05841447      -0.04184020       0.37474770 </v>
   <v>       0.00044696       0.00046207      -0.06959560 </v>
   <v>      -0.08492736      -0.02018699      -0.02279705 </v>
   <v>      -0.02348493       0.06476386       0.01773575 </v>
   <v>      -0.02107651      -0.01395730       0.04552128 </v>
   <v>      -0.04621434       0.01380739       0.00152170 </v>
   <v>      -0.06760068      -0.02898935      -0.13637153 </v>
   <v>      -0.03581323       0.04216751      -0.10549833 </v>
   <v>      -0.00936662       0.00795980      -0.01947164 </v>
   <v>       0.03219740      -0.03130258       0.01818393 </v>
   <v>       0.04003796       0.00708675       0.03008219 </v>
   <v>       0.03655867      -0.00062951       0.03674604 </v>
   <v>      -0.03939882       0.03506690       0.02405886 </v>
   <v>      -0.07956774       0.07331935       0.02983475 </v>
   <v>      -0.03204346      -0.01989705       0.07816005 </v>
   <v>       0.03385559       0.00350986       0.13062089 </v>
   <v>       0.13059498       0.16336441       0.01472730 </v>
   <v>       0.05830342       0.00522934      -0.16518945 </v>
  </varray>
  <varray name="stress" >
   <v>     -10.40859727      -0.09809881      -1.18990420 </v>
   <v>      -0.09809873     -10.54889002       0.64812360 </v>
   <v>      -1.18990306       0.64812245       1.21881975 </v>
  </varray>
  <energy>
   <i name="e_fr_energy">   -923.60887348 </i>
   <i name="e_wo_entrp">   -923.60887348 </i>
   <i name="e_0_energy">   -923.60887348 </i>
  </energy>
  <time name="totalsc">  237.45  237.70</time>
 </calculation>
 <calculation>
  <scstep>
   <time name="dav">    7.06    7.07</time>
   <time name="total">    9.67    9.69</time>
   <energy>
    <i name="alphaZ">   1939.80149885 </i>
    <i name="ewald"> 200890.22768098 </i>
    <i name="hartreedc">-273604.50589166 </i>
    <i name="XCdc">   2877.32333179 </i>
    <i name="pawpsdc">  75246.10692535 </i>
    <i name="pawaedc"> -74402.58278536 </i>
    <i name="eentropy">     -0.00000000 </i>
    <i name="bandstr"> -12500.11536962 </i>
    <i name="atom">  78630.14029091 </i>
    <i name="e_fr_energy">   -923.60431874 </i>
    <i name="e_wo_entrp">   -923.60431874 </i>
    <i name="e_0_energy">   -923.60431874 </i>
   </energy>
  </scstep>
  <scstep>
   <time name="dav">    8.16    8.17</time>
   <time name="total">   10.85   10.86</time>
   <energy>
    <i name="e_fr_energy">   -923.61286932 </i>
    <i name="e_wo_entrp">   -923.61286932 </i>
    <i name="e_0_energy">   -923.61286932 </i>
   </energy>
  </scstep>
  <scstep>
   <time name="dav">   10.67   10.68</time>
   <time name="total">   13.31   13.32</time>
   <energy>
    <i name="e_fr_energy">   -923.61299285 </i>
    <i name="e_wo_entrp">   -923.61299285 </i>
    <i name="e_0_energy">   -923.61299285 </i>
   </energy>
  </scstep>
  <scstep>
   <time name="dav">   11.14   11.15</time>
   <time name="total">   13.79   13.80</time>
   <energy>
    <i name="e_fr_energy">   -923.61271696 </i>
    <i name="e_wo_entrp">   -923.61271696 </i>
    <i name="e_0_energy">   -923.61271696 </i>
   </energy>
  </scstep>
  <scstep>
   <time name="dav">    9.65    9.65</time>
   <time name="total">   12.26   12.27</time>
   <energy>
    <i name="e_fr_energy">   -923.61261698 </i>
    <i name="e_wo_entrp">   -923.61261698 </i>
    <i name="e_0_energy">   -923.61261698 </i>
   </energy>
  </scstep>
  <scstep>
