unknown system                          
           1
    15.464300    0.000000    0.000000
    -7.732150   13.392477    0.000000
     0.000000    0.000000   21.048201
   Ce   O    Ir
    32    98     4
Direct configuration=     1
   0.00000000  0.00000000  0.45993000
   0.16667000  0.08333000  0.30996000
   0.25000000  0.00000000  0.45993000
   0.41667000  0.08333000  0.30996000
   0.50000000  0.00000000  0.45993000
   0.66667000  0.08333000  0.30996000
   0.75000000  0.00000000  0.45993000
   0.91667000  0.08333000  0.30996000
   0.00000000  0.25000000  0.45993000
   0.16667000  0.33333000  0.30996000
   0.25000000  0.25000000  0.45993000
   0.41667000  0.33333000  0.30996000
   0.50000000  0.25000000  0.45993000
   0.66667000  0.33333000  0.30996000
   0.75000000  0.25000000  0.45993000
   0.91667000  0.33333000  0.30996000
   0.00000000  0.50000000  0.45993000
   0.16667000  0.58333000  0.30996000
   0.25000000  0.50000000  0.45993000
   0.41667000  0.58333000  0.30996000
   0.50000000  0.50000000  0.45993000
   0.66667000  0.58333000  0.30996000
   0.75000000  0.50000000  0.45993000
   0.91667000  0.58333000  0.30996000
   0.00000000  0.75000000  0.45993000
   0.16667000  0.83333000  0.30996000
   0.25000000  0.75000000  0.45993000
   0.41667000  0.83333000  0.30996000
   0.50000000  0.75000000  0.45993000
   0.66667000  0.83333000  0.30996000
   0.75000000  0.75000000  0.45993000
   0.91667000  0.83333000  0.30996000
   0.08333000  0.16667000  0.27247000
   0.16667000  0.08333000  0.42244000
   0.08333000  0.16667000  0.49742000
   0.00000000  0.00000000  0.34745000
   0.16667000  0.08333000  0.19748000
   0.20842000  0.04158000  0.58116000
   0.33333000  0.16667000  0.27247000
   0.41667000  0.08333000  0.42244000
   0.33333000  0.16667000  0.49742000
   0.25000000  0.00000000  0.34745000
   0.41667000  0.08333000  0.19748000
   0.58333000  0.16667000  0.27247000
   0.66667000  0.08333000  0.42244000
   0.58333000  0.16667000  0.49742000
   0.50000000  0.00000000  0.34745000
   0.66667000  0.08333000  0.19748000
   0.70872000  0.04128000  0.58444000
   0.83333000  0.16667000  0.27247000
   0.91667000  0.08333000  0.42244000
   0.83333000  0.16667000  0.49742000
   0.75000000  0.00000000  0.34745000
   0.91667000  0.08333000  0.19748000
   0.08333000  0.41667000  0.27247000
   0.16667000  0.33333000  0.42244000
   0.08333000  0.41667000  0.49742000
   0.00000000  0.25000000  0.34745000
   0.16667000  0.33333000  0.19748000
   0.33333000  0.41667000  0.27247000
   0.41667000  0.33333000  0.42244000
   0.33333000  0.41667000  0.49742000
   0.25000000  0.25000000  0.34745000
   0.41667000  0.33333000  0.19748000
   0.45842000  0.29158000  0.58116000
   0.58333000  0.41667000  0.27247000
   0.66667000  0.33333000  0.42244000
   0.58333000  0.41667000  0.49742000
   0.50000000  0.25000000  0.34745000
   0.66667000  0.33333000  0.19748000
   0.83333000  0.41667000  0.27247000
   0.91667000  0.33333000  0.42244000
   0.83333000  0.41667000  0.49742000
   0.75000000  0.25000000  0.34745000
   0.91667000  0.33333000  0.19748000
   0.08333000  0.66667000  0.27247000
   0.16667000  0.58333000  0.42244000
   0.08333000  0.66667000  0.49742000
   0.00000000  0.50000000  0.34745000
   0.16667000  0.58333000  0.19748000
   0.20872000  0.54128000  0.58444000
   0.33333000  0.66667000  0.27247000
   0.41667000  0.58333000  0.42244000
   0.33333000  0.66667000  0.49742000
   0.25000000  0.50000000  0.34745000
   0.41667000  0.58333000  0.19748000
   0.58333000  0.66667000  0.27247000
   0.66667000  0.58333000  0.42244000
   0.58333000  0.66667000  0.49742000
   0.50000000  0.50000000  0.34745000
   0.66667000  0.58333000  0.19748000
   0.70842000  0.54158000  0.58116000
   0.83333000  0.66667000  0.27247000
   0.91667000  0.58333000  0.42244000
   0.83333000  0.66667000  0.49742000
   0.75000000  0.50000000  0.34745000
   0.91667000  0.58333000  0.19748000
   0.08333000  0.91667000  0.27247000
   0.16667000  0.83333000  0.42244000
   0.08333000  0.91667000  0.49742000
   0.00000000  0.75000000  0.34745000
   0.16667000  0.83333000  0.19748000
   0.33333000  0.91667000  0.27247000
   0.41667000  0.83333000  0.42244000
   0.33333000  0.91667000  0.49742000
   0.25000000  0.75000000  0.34745000
   0.41667000  0.83333000  0.19748000
   0.45872000  0.79128000  0.58444000
   0.58333000  0.91667000  0.27247000
   0.66667000  0.83333000  0.42244000
   0.58333000  0.91667000  0.49742000
   0.50000000  0.75000000  0.34745000
   0.66667000  0.83333000  0.19748000
   0.83333000  0.91667000  0.27247000
   0.91667000  0.83333000  0.42244000
   0.83333000  0.91667000  0.49742000
   0.75000000  0.75000000  0.34745000
   0.91667000  0.83333000  0.19748000
   0.51426000  0.49220000  0.58386000
   0.26652000  0.73994000  0.59099000
   0.51652000  0.98994000  0.59099000
   0.58851000  0.41951000  0.67258000
   0.33754000  0.67048000  0.67250000
   0.58754000  0.92048000  0.67250000
   0.65929000  0.34869000  0.58011000
   0.40939000  0.59859000  0.58424000
   0.65939000  0.84859000  0.58424000
   0.26112000  0.24167000  0.58188000
   0.33537000  0.16898000  0.67060000
   0.40614000  0.09816000  0.57813000
   0.58502000  0.91424000  0.58749000
   0.34137000  0.67329000  0.58504000
   0.59736000  0.42997000  0.58157000
   0.34421000  0.17945000  0.57959000
Direct configuration=     2
   0.99973786  0.00021025  0.46138294
   0.16667000  0.08333000  0.30996000
   0.24541218  0.99178989  0.46189593
   0.41667000  0.08333000  0.30996000
   0.49699566  0.00350537  0.46238860
   0.66667000  0.08333000  0.30996000
   0.75680307  0.00384259  0.46160433
   0.91667000  0.08333000  0.30996000
   0.00011741  0.24960698  0.46118876
   0.16667000  0.33333000  0.30996000
   0.24401446  0.25355931  0.46161528
   0.41667000  0.33333000  0.30996000
   0.50521533  0.24563065  0.45813492
   0.66667000  0.33333000  0.30996000
   0.75069516  0.24993436  0.46181038
   0.91667000  0.33333000  0.30996000
   0.00015221  0.50007584  0.46121377
   0.16667000  0.58333000  0.30996000
   0.24592075  0.49281880  0.46161789
   0.41667000  0.58333000  0.30996000
   0.49568009  0.50439927  0.46195800
   0.66667000  0.58333000  0.30996000
   0.75898396  0.50432868  0.45967780
   0.91667000  0.58333000  0.30996000
   0.00048777  0.75017724  0.46104915
   0.16667000  0.83333000  0.30996000
   0.24550524  0.75318781  0.46169372
   0.41667000  0.83333000  0.30996000
   0.50414712  0.74682364  0.45859347
   0.66667000  0.83333000  0.30996000
   0.75081105  0.75106807  0.46162869
   0.91667000  0.83333000  0.30996000
   0.08333000  0.16667000  0.27247000
   0.16853778  0.08412622  0.42256384
   0.08270546  0.16629185  0.49620308
   0.00000000  0.00000000  0.34745000
   0.16667000  0.08333000  0.19748000
   0.21442395  0.04631378  0.57988101
   0.33333000  0.16667000  0.27247000
   0.41651331  0.08509456  0.42267269
   0.33202814  0.16674947  0.48071909
   0.25000000  0.00000000  0.34745000
   0.41667000  0.08333000  0.19748000
   0.58333000  0.16667000  0.27247000
   0.66581517  0.08200920  0.42250933
   0.58286773  0.16732496  0.49553243
   0.50000000  0.00000000  0.34745000
   0.66667000  0.08333000  0.19748000
   0.70297353  0.03433953  0.58278380
   0.83333000  0.16667000  0.27247000
   0.91622549  0.08312614  0.42207493
   0.83403280  0.16760019  0.49601459
   0.75000000  0.00000000  0.34745000
   0.91667000  0.08333000  0.19748000
   0.08333000  0.41667000  0.27247000
   0.16703328  0.33361553  0.42210279
   0.08259931  0.41632589  0.49615340
   0.00000000  0.25000000  0.34745000
   0.16667000  0.33333000  0.19748000
   0.33333000  0.41667000  0.27247000
   0.41816571  0.33223976  0.42340862
   0.33321023  0.41661056  0.49545817
   0.25000000  0.25000000  0.34745000
   0.41667000  0.33333000  0.19748000
   0.47151965  0.30427160  0.57874479
   0.58333000  0.41667000  0.27247000
   0.66494134  0.33385688  0.42273824
   0.58095748  0.41526620  0.48534414
   0.50000000  0.25000000  0.34745000
   0.66667000  0.33333000  0.19748000
   0.83333000  0.41667000  0.27247000
   0.91644619  0.33339737  0.42213518
   0.83348187  0.41726067  0.49657889
   0.75000000  0.25000000  0.34745000
   0.91667000  0.33333000  0.19748000
   0.08333000  0.66667000  0.27247000
   0.16820719  0.58408624  0.42251425
   0.08302638  0.66644408  0.49641702
   0.00000000  0.50000000  0.34745000
   0.16667000  0.58333000  0.19748000
   0.21472933  0.54583151  0.58341043
   0.33333000  0.66667000  0.27247000
   0.41658110  0.58467275  0.42263812
   0.33344363  0.66782793  0.48917230
   0.25000000  0.50000000  0.34745000
   0.41667000  0.58333000  0.19748000
   0.58333000  0.66667000  0.27247000
   0.66583424  0.58154188  0.42279233
   0.58320428  0.66718038  0.49575694
   0.50000000  0.50000000  0.34745000
   0.66667000  0.58333000  0.19748000
   0.71567194  0.54822679  0.57959802
   0.83333000  0.66667000  0.27247000
   0.91588481  0.58296518  0.42223166
   0.83388929  0.66710685  0.49620544
   0.75000000  0.50000000  0.34745000
   0.91667000  0.58333000  0.19748000
   0.08333000  0.91667000  0.27247000
   0.16700811  0.83359484  0.42215081
   0.08235965  0.91590557  0.49603469
   0.00000000  0.75000000  0.34745000
   0.16667000  0.83333000  0.19748000
   0.33333000  0.91667000  0.27247000
   0.41767074  0.83238927  0.42309567
   0.33314565  0.91613805  0.49549700
   0.25000000  0.75000000  0.34745000
   0.41667000  0.83333000  0.19748000
   0.46641998  0.79775534  0.58170345
   0.58333000  0.91667000  0.27247000
   0.66512961  0.83347247  0.42259135
   0.58142519  0.91571442  0.49178756
   0.50000000  0.75000000  0.34745000
   0.66667000  0.83333000  0.19748000
   0.83333000  0.91667000  0.27247000
   0.91642187  0.83311935  0.42214830
   0.83370806  0.91685466  0.49638143
   0.75000000  0.75000000  0.34745000
   0.91667000  0.83333000  0.19748000
   0.51794956  0.48636072  0.58097512
   0.26861409  0.73676861  0.58679263
   0.51770752  0.98546849  0.58696021
   0.58825376  0.41944058  0.66768110
   0.33768612  0.66949219  0.67183517
   0.58644589  0.91840002  0.67300319
   0.65412914  0.35157638  0.57887660
   0.40505348  0.60233774  0.58270118
   0.65425822  0.84958531  0.58260392
   0.26552012  0.23734016  0.57889701
   0.33531379  0.16916034  0.66611626
   0.40164497  0.10204219  0.57711587
   0.59916386  0.92859528  0.60072879
   0.32856068  0.65928275  0.60276429
   0.59287935  0.42589623  0.60649953
   0.32898350  0.16335492  0.60866970
Direct configuration=     3
   0.99994702  0.00004249  0.46022363
   0.16667000  0.08333000  0.30996000
   0.24907284  0.99834080  0.46032730
   0.41667000  0.08333000  0.30996000
   0.49939285  0.00070841  0.46042686
   0.66667000  0.08333000  0.30996000
   0.75137484  0.00077656  0.46026837
   0.91667000  0.08333000  0.30996000
   0.00002373  0.24992057  0.46018439
   0.16667000  0.33333000  0.30996000
   0.24879037  0.25071931  0.46027058
   0.41667000  0.33333000  0.30996000
   0.50105398  0.24911699  0.45956723
   0.66667000  0.33333000  0.30996000
   0.75014049  0.24998674  0.46031001
   0.91667000  0.33333000  0.30996000
   0.00003076  0.50001533  0.46018944
   0.16667000  0.58333000  0.30996000
   0.24917562  0.49854874  0.46027111
   0.41667000  0.58333000  0.30996000
   0.49912698  0.50088906  0.46033984
   0.66667000  0.58333000  0.30996000
   0.75181558  0.50087479  0.45987903
   0.91667000  0.58333000  0.30996000
   0.00009857  0.75003582  0.46015617
   0.16667000  0.83333000  0.30996000
   0.24909165  0.75064423  0.46028643
   0.41667000  0.83333000  0.30996000
   0.50083810  0.74935808  0.45965990
   0.66667000  0.83333000  0.30996000
   0.75016391  0.75021585  0.46027329
   0.91667000  0.83333000  0.30996000
   0.08333000  0.16667000  0.27247000
   0.16704746  0.08349091  0.42246503
   0.08320379  0.16659358  0.49717407
   0.00000000  0.00000000  0.34745000
   0.16667000  0.08333000  0.19748000
   0.20963335  0.04253666  0.58090153
   0.33333000  0.16667000  0.27247000
   0.41663833  0.08368660  0.42248702
   0.33306690  0.16668606  0.49404488
   0.25000000  0.00000000  0.34745000
   0.41667000  0.08333000  0.19748000
   0.58333000  0.16667000  0.27247000
   0.66649725  0.08306308  0.42245401
   0.58323658  0.16680236  0.49703854
   0.50000000  0.00000000  0.34745000
   0.66667000  0.08333000  0.19748000
   0.70755869  0.03987739  0.58410530
   0.83333000  0.16667000  0.27247000
   0.91658017  0.08328880  0.42236622
   0.83347203  0.16685798  0.49713598
   0.75000000  0.00000000  0.34745000
   0.91667000  0.08333000  0.19748000
   0.08333000  0.41667000  0.27247000
   0.16674342  0.33338770  0.42237185
   0.08318233  0.41660046  0.49716403
   0.00000000  0.25000000  0.34745000
   0.16667000  0.33333000  0.19748000
   0.33333000  0.41667000  0.27247000
   0.41697227  0.33310967  0.42263575
   0.33330580  0.41665799  0.49702353
   0.25000000  0.25000000  0.34745000
   0.41667000  0.33333000  0.19748000
   0.46106733  0.29414487  0.58067191
   0.58333000  0.41667000  0.27247000
   0.66632065  0.33343648  0.42250027
   0.58285053  0.41638630  0.49497957
   0.50000000  0.25000000  0.34745000
   0.66667000  0.33333000  0.19748000
   0.83333000  0.41667000  0.27247000
   0.91662477  0.33334361  0.42237840
   0.83336069  0.41678937  0.49725002
   0.75000000  0.25000000  0.34745000
   0.91667000  0.33333000  0.19748000
   0.08333000  0.66667000  0.27247000
   0.16698065  0.58348283  0.42245501
   0.08326864  0.66662434  0.49721731
   0.00000000  0.50000000  0.34745000
   0.16667000  0.58333000  0.19748000
   0.20993444  0.54219982  0.58423193
   0.33333000  0.66667000  0.27247000
   0.41665203  0.58360136  0.42248004
   0.33335296  0.66690401  0.49575321
   0.25000000  0.50000000  0.34745000
   0.41667000  0.58333000  0.19748000
   0.58333000  0.66667000  0.27247000
   0.66650110  0.58296864  0.42251120
   0.58330459  0.66677314  0.49708391
   0.50000000  0.50000000  0.34745000
   0.66667000  0.58333000  0.19748000
   0.70988556  0.54292326  0.58084434
   0.83333000  0.66667000  0.27247000
   0.91651132  0.58325627  0.42239790
   0.83344303  0.66675828  0.49717455
   0.75000000  0.50000000  0.34745000
   0.91667000  0.58333000  0.19748000
   0.08333000  0.91667000  0.27247000
   0.16673833  0.83338352  0.42238156
   0.08313390  0.91651552  0.49714004
   0.00000000  0.75000000  0.34745000
   0.16667000  0.83333000  0.19748000
   0.33333000  0.91667000  0.27247000
   0.41687224  0.83313989  0.42257251
   0.33329274  0.91656250  0.49703138
   0.25000000  0.75000000  0.34745000
   0.41667000  0.83333000  0.19748000
   0.46027610  0.79258861  0.58388697
   0.58333000  0.91667000  0.27247000
   0.66635870  0.83335879  0.42247059
   0.58294505  0.91647688  0.49628173
   0.50000000  0.75000000  0.34745000
   0.66667000  0.83333000  0.19748000
   0.83333000  0.91667000  0.27247000
   0.91661986  0.83328743  0.42238105
   0.83340640  0.91670732  0.49721011
   0.75000000  0.75000000  0.34745000
   0.91667000  0.83333000  0.19748000
   0.51500563  0.49101993  0.58327699
   0.26694320  0.73929909  0.59014175
   0.51675999  0.98903634  0.59017561
   0.58845822  0.41949597  0.67158997
   0.33756953  0.67028037  0.67236564
   0.58731889  0.92005965  0.67260169
   0.65824703  0.34927331  0.57986074
   0.40851362  0.59934739  0.58392902
   0.65835291  0.84879114  0.58390936
   0.26200923  0.24079498  0.58127716
   0.33535864  0.16901644  0.66969387
   0.40523159  0.09894456  0.57792505
   0.58787836  0.91714108  0.59016545
   0.33878134  0.67045925  0.58862193
   0.59645450  0.42914673  0.58660805
   0.34113285  0.17619732  0.58546677
Direct configuration=     4
   0.99992392  0.00006102  0.46035169
   0.16667000  0.08333000  0.30996000
   0.24866847  0.99761717  0.46050057
   0.41667000  0.08333000  0.30996000
   0.49912805  0.00101737  0.46064356
   0.66667000  0.08333000  0.30996000
   0.75197446  0.00111524  0.46041594
   0.91667000  0.08333000  0.30996000
   0.00003408  0.24988593  0.46029533
   0.16667000  0.33333000  0.30996000
   0.24826281  0.25103302  0.46041912
   0.41667000  0.33333000  0.30996000
   0.50151365  0.24873188  0.45940901
   0.66667000  0.33333000  0.30996000
   0.75020176  0.24998095  0.46047574
   0.91667000  0.33333000  0.30996000
   0.00004418  0.50002201  0.46030259
   0.16667000  0.58333000  0.30996000
   0.24881607  0.49791579  0.46041988
   0.41667000  0.58333000  0.30996000
   0.49874623  0.50127680  0.46051859
   0.66667000  0.58333000  0.30996000
   0.75260742  0.50125632  0.45985680
   0.91667000  0.58333000  0.30996000
   0.00014157  0.75005144  0.46025481
   0.16667000  0.83333000  0.30996000
   0.24869548  0.75092520  0.46044189
   0.41667000  0.83333000  0.30996000
   0.50120362  0.74907812  0.45954210
   0.66667000  0.83333000  0.30996000
   0.75023539  0.75030999  0.46042301
   0.91667000  0.83333000  0.30996000
   0.08333000  0.16667000  0.27247000
   0.16721209  0.08356109  0.42247594
   0.08314874  0.16656025  0.49706681
   0.00000000  0.00000000  0.34745000
   0.16667000  0.08333000  0.19748000
   0.21016253  0.04295389  0.58078880
   0.33333000  0.16667000  0.27247000
   0.41662452  0.08384213  0.42250753
   0.33295216  0.16669306  0.49257288
   0.25000000  0.00000000  0.34745000
   0.41667000  0.08333000  0.19748000
   0.58333000  0.16667000  0.27247000
   0.66642190  0.08294666  0.42246012
   0.58319584  0.16686009  0.49687217
   0.50000000  0.00000000  0.34745000
   0.66667000  0.08333000  0.19748000
   0.70705220  0.03926566  0.58395932
   0.83333000  0.16667000  0.27247000
   0.91654099  0.08327083  0.42233405
   0.83353397  0.16693997  0.49701211
   0.75000000  0.00000000  0.34745000
   0.91667000  0.08333000  0.19748000
   0.08333000  0.41667000  0.27247000
   0.16677544  0.33341287  0.42234213
   0.08311793  0.41657013  0.49705239
   0.00000000  0.25000000  0.34745000
   0.16667000  0.33333000  0.19748000
   0.33333000  0.41667000  0.27247000
   0.41710410  0.33301358  0.42272112
   0.33329524  0.41665275  0.49685062
   0.25000000  0.25000000  0.34745000
   0.41667000  0.33333000  0.19748000
   0.46222192  0.29526350  0.58045903
   0.58333000  0.41667000  0.27247000
   0.66616829  0.33348292  0.42252656
   0.58264142  0.41626257  0.49391521
   0.50000000  0.25000000  0.34745000
   0.66667000  0.33333000  0.19748000
   0.83333000  0.41667000  0.27247000
   0.91660504  0.33334955  0.42235153
   0.83337408  0.41684143  0.49717589
   0.75000000  0.25000000  0.34745000
   0.91667000  0.33333000  0.19748000
   0.08333000  0.66667000  0.27247000
   0.16711614  0.58354948  0.42246155
   0.08324188  0.66660443  0.49712890
   0.00000000  0.50000000  0.34745000
   0.16667000  0.58333000  0.19748000
   0.21046409  0.54260099  0.58414119
   0.33333000  0.66667000  0.27247000
   0.41664420  0.58371971  0.42249750
   0.33336298  0.66700607  0.49502626
   0.25000000  0.50000000  0.34745000
   0.41667000  0.58333000  0.19748000
   0.58333000  0.66667000  0.27247000
   0.66642744  0.58281103  0.42254226
   0.58329351  0.66681813  0.49693733
   0.50000000  0.50000000  0.34745000
   0.66667000  0.58333000  0.19748000
   0.71052474  0.54350910  0.58070667
   0.83333000  0.66667000  0.27247000
   0.91644211  0.58322412  0.42237953
   0.83349232  0.66679679  0.49706750
   0.75000000  0.50000000  0.34745000
   0.91667000  0.58333000  0.19748000
   0.08333000  0.91667000  0.27247000
   0.16676813  0.83340686  0.42235607
   0.08304837  0.91644814  0.49701794
   0.00000000  0.75000000  0.34745000
   0.16667000  0.83333000  0.19748000
   0.33333000  0.91667000  0.27247000
   0.41696044  0.83305697  0.42263030
   0.33327650  0.91651561  0.49686189
   0.25000000  0.75000000  0.34745000
   0.41667000  0.83333000  0.19748000
   0.46095477  0.79315934  0.58364577
   0.58333000  0.91667000  0.27247000
   0.66622293  0.83337135  0.42248393
   0.58277716  0.91639266  0.49578529
   0.50000000  0.75000000  0.34745000
   0.66667000  0.83333000  0.19748000
   0.83333000  0.91667000  0.27247000
   0.91659799  0.83326886  0.42235534
   0.83343972  0.91672360  0.49711857
   0.75000000  0.75000000  0.34745000
   0.91667000  0.83333000  0.19748000
   0.51533082  0.49050526  0.58302272
   0.26712777  0.73901956  0.58977179
   0.51686465  0.98864223  0.58982043
   0.58843563  0.41948985  0.67115819
   0.33758241  0.67019331  0.67230705
   0.58722246  0.91987632  0.67264604
   0.65779216  0.34952772  0.57975203
   0.40813141  0.59967771  0.58379339
   0.65790060  0.84887887  0.58376516
   0.26239705  0.24041335  0.58101424
   0.33535369  0.16903234  0.66929868
   0.40483540  0.09928673  0.57783567
   0.58912499  0.91840635  0.59133231
   0.33765234  0.66922466  0.59018414
   0.59605958  0.42878767  0.58880532
   0.33979080  0.17477871  0.58802983
Direct configuration=     5
   0.99989469  0.00008446  0.46051371
   0.16667000  0.08333000  0.30996000
   0.24815688  0.99670165  0.46071980
   0.41667000  0.08333000  0.30996000
   0.49879303  0.00140826  0.46091773
   0.66667000  0.08333000  0.30996000
   0.75273308  0.00154373  0.46060265
   0.91667000  0.08333000  0.30996000
   0.00004717  0.24984211  0.46043570
   0.16667000  0.33333000  0.30996000
   0.24759535  0.25142993  0.46060705
   0.41667000  0.33333000  0.30996000
   0.50209522  0.24824465  0.45920884
   0.66667000  0.33333000  0.30996000
   0.75027927  0.24997363  0.46068543
   0.91667000  0.33333000  0.30996000
   0.00006115  0.50003047  0.46044575
   0.16667000  0.58333000  0.30996000
   0.24836119  0.49711501  0.46060810
   0.41667000  0.58333000  0.30996000
   0.49826451  0.50176737  0.46074473
   0.66667000  0.58333000  0.30996000
   0.75360924  0.50173902  0.45982868
   0.91667000  0.58333000  0.30996000
   0.00019596  0.75007120  0.46037961
   0.16667000  0.83333000  0.30996000
   0.24819426  0.75128068  0.46063856
   0.41667000  0.83333000  0.30996000
   0.50166607  0.74872392  0.45939306
   0.66667000  0.83333000  0.30996000
   0.75032583  0.75042909  0.46061243
   0.91667000  0.83333000  0.30996000
   0.08333000  0.16667000  0.27247000
   0.16742037  0.08364988  0.42248975
   0.08307910  0.16651808  0.49693111
   0.00000000  0.00000000  0.34745000
   0.16667000  0.08333000  0.19748000
   0.21083204  0.04348176  0.58064618
   0.33333000  0.16667000  0.27247000
   0.41660705  0.08403890  0.42253348
   0.33280699  0.16670193  0.49071053
   0.25000000  0.00000000  0.34745000
   0.41667000  0.08333000  0.19748000
   0.58333000  0.16667000  0.27247000
   0.66632658  0.08279938  0.42246785
   0.58314429  0.16693313  0.49666168
   0.50000000  0.00000000  0.34745000
   0.66667000  0.08333000  0.19748000
   0.70641140  0.03849172  0.58377464
   0.83333000  0.16667000  0.27247000
   0.91649142  0.08324810  0.42229334
   0.83361234  0.16704370  0.49685539
   0.75000000  0.00000000  0.34745000
   0.91667000  0.08333000  0.19748000
   0.08333000  0.41667000  0.27247000
   0.16681595  0.33344471  0.42230453
   0.08303645  0.41653176  0.49691115
   0.00000000  0.25000000  0.34745000
   0.16667000  0.33333000  0.19748000
   0.33333000  0.41667000  0.27247000
   0.41727089  0.33289201  0.42282914
   0.33328188  0.41664612  0.49663185
   0.25000000  0.25000000  0.34745000
   0.41667000  0.33333000  0.19748000
   0.46368269  0.29667876  0.58018971
   0.58333000  0.41667000  0.27247000
   0.66597552  0.33354167  0.42255982
   0.58237686  0.41610603  0.49256861
   0.50000000  0.25000000  0.34745000
   0.66667000  0.33333000  0.19748000
   0.83333000  0.41667000  0.27247000
   0.91658009  0.33335707  0.42231754
   0.83339101  0.41690730  0.49708209
   0.75000000  0.25000000  0.34745000
   0.91667000  0.33333000  0.19748000
   0.08333000  0.66667000  0.27247000
   0.16728755  0.58363381  0.42246983
   0.08320802  0.66657924  0.49701706
   0.00000000  0.50000000  0.34745000
   0.16667000  0.58333000  0.19748000
   0.21113420  0.54310854  0.58402638
   0.33333000  0.66667000  0.27247000
   0.41663429  0.58386944  0.42251959
   0.33337565  0.66713519  0.49410655
   0.25000000  0.50000000  0.34745000
   0.41667000  0.58333000  0.19748000
   0.58333000  0.66667000  0.27247000
   0.66633424  0.58261164  0.42258155
   0.58327949  0.66687504  0.49675188
   0.50000000  0.50000000  0.34745000
   0.66667000  0.58333000  0.19748000
   0.71133341  0.54425030  0.58053249
   0.83333000  0.66667000  0.27247000
   0.91635455  0.58318344  0.42235630
   0.83355469  0.66684550  0.49693206
   0.75000000  0.50000000  0.34745000
   0.91667000  0.58333000  0.19748000
   0.08333000  0.91667000  0.27247000
   0.16680583  0.83343640  0.42232382
   0.08294017  0.91636290  0.49686346
   0.00000000  0.75000000  0.34745000
   0.16667000  0.83333000  0.19748000
   0.33333000  0.91667000  0.27247000
   0.41707204  0.83295207  0.42270341
   0.33325594  0.91645629  0.49664745
   0.25000000  0.75000000  0.34745000
   0.41667000  0.83333000  0.19748000
   0.46181341  0.79388142  0.58334061
   0.58333000  0.91667000  0.27247000
   0.66605116  0.83338723  0.42250080
   0.58256476  0.91628610  0.49515721
   0.50000000  0.75000000  0.34745000
   0.66667000  0.83333000  0.19748000
   0.83333000  0.91667000  0.27247000
   0.91657032  0.83324537  0.42232281
   0.83348188  0.91674419  0.49700276
   0.75000000  0.75000000  0.34745000
   0.91667000  0.83333000  0.19748000
   0.51574225  0.48985411  0.58270102
   0.26736128  0.73866592  0.58930374
   0.51699708  0.98814360  0.58937106
   0.58840706  0.41948211  0.67061190
   0.33759870  0.67008315  0.67223291
   0.58710045  0.91964438  0.67270215
   0.65721666  0.34984958  0.57961449
   0.40764783  0.60009563  0.58362179
   0.65732835  0.84898986  0.58358272
   0.26288771  0.23993052  0.58068160
   0.33534742  0.16905245  0.66879869
   0.40433415  0.09971964  0.57772258
   0.59070219  0.92000713  0.59280859
   0.33622395  0.66766269  0.59216060
   0.59555993  0.42833339  0.59158525
   0.33809287  0.17298392  0.59127255
Direct configuration=     6
   0.00096053  0.00036428  0.46132004
   0.16667000  0.08333000  0.30996000
   0.24600438  0.99394952  0.46284720
   0.41667000  0.08333000  0.30996000
   0.49603945  0.00345144  0.46294523
   0.66667000  0.08333000  0.30996000
   0.75698441  0.00423198  0.46157179
   0.91667000  0.08333000  0.30996000
   0.99995643  0.24980692  0.46121917
   0.16667000  0.33333000  0.30996000
   0.24584068  0.25274862  0.46232271
   0.41667000  0.33333000  0.30996000
   0.50325027  0.24559759  0.45929274
   0.66667000  0.33333000  0.30996000
   0.75013762  0.24961521  0.46176867
   0.91667000  0.33333000  0.30996000
   0.00098492  0.50008032  0.46121895
   0.16667000  0.58333000  0.30996000
   0.24566106  0.49317872  0.46221220
   0.41667000  0.58333000  0.30996000
   0.49531933  0.50306920  0.46231368
   0.66667000  0.58333000  0.30996000
   0.75767033  0.50412410  0.46016156
   0.91667000  0.58333000  0.30996000
   0.00033833  0.75058500  0.46115379
   0.16667000  0.83333000  0.30996000
   0.24634914  0.75341070  0.46231081
   0.41667000  0.83333000  0.30996000
   0.50357625  0.74676926  0.45916834
   0.66667000  0.83333000  0.30996000
   0.75055122  0.75044835  0.46163856
   0.91667000  0.83333000  0.30996000
   0.08333000  0.16667000  0.27247000
   0.16733888  0.08341539  0.42224470
   0.08157795  0.16609883  0.49610597
   0.00000000  0.00000000  0.34745000
   0.16667000  0.08333000  0.19748000
   0.22071203  0.05238840  0.58016530
   0.33333000  0.16667000  0.27247000
   0.41660185  0.08421961  0.42212042
   0.33325631  0.16833005  0.48737515
   0.25000000  0.00000000  0.34745000
   0.41667000  0.08333000  0.19748000
   0.58333000  0.16667000  0.27247000
   0.66611628  0.08208271  0.42261274
   0.58391630  0.16718441  0.49516449
   0.50000000  0.00000000  0.34745000
   0.66667000  0.08333000  0.19748000
   0.70301511  0.03366701  0.58229872
   0.83333000  0.16667000  0.27247000
   0.91623663  0.08316806  0.42211180
   0.83472820  0.16814870  0.49577028
   0.75000000  0.00000000  0.34745000
   0.91667000  0.08333000  0.19748000
   0.08333000  0.41667000  0.27247000
   0.16645178  0.33378330  0.42197597
   0.08175130  0.41535044  0.49577732
   0.00000000  0.25000000  0.34745000
   0.16667000  0.33333000  0.19748000
   0.33333000  0.41667000  0.27247000
   0.41808958  0.33299870  0.42278305
   0.33252630  0.41709011  0.49506130
   0.25000000  0.25000000  0.34745000
   0.41667000  0.33333000  0.19748000
   0.46556887  0.29774961  0.57859024
   0.58333000  0.41667000  0.27247000
   0.66596371  0.33396228  0.42235825
   0.58250052  0.41690927  0.49092325
   0.50000000  0.25000000  0.34745000
   0.66667000  0.33333000  0.19748000
   0.83333000  0.41667000  0.27247000
   0.91638073  0.33348607  0.42217030
   0.83413182  0.41747000  0.49660277
   0.75000000  0.25000000  0.34745000
   0.91667000  0.33333000  0.19748000
   0.08333000  0.66667000  0.27247000
   0.16784921  0.58381731  0.42248859
   0.08237606  0.66630420  0.49630395
   0.00000000  0.50000000  0.34745000
   0.16667000  0.58333000  0.19748000
   0.22086246  0.55135297  0.58322020
   0.33333000  0.66667000  0.27247000
   0.41632503  0.58462236  0.42236763
   0.33405525  0.66845550  0.49242288
   0.25000000  0.50000000  0.34745000
   0.41667000  0.58333000  0.19748000
   0.58333000  0.66667000  0.27247000
   0.66632502  0.58214565  0.42267060
   0.58384049  0.66752949  0.49540329
   0.50000000  0.50000000  0.34745000
   0.66667000  0.58333000  0.19748000
   0.71084325  0.54323861  0.58000896
   0.83333000  0.66667000  0.27247000
   0.91625264  0.58306622  0.42217060
   0.83486119  0.66806660  0.49586678
   0.75000000  0.50000000  0.34745000
   0.91667000  0.58333000  0.19748000
   0.08333000  0.91667000  0.27247000
   0.16646741  0.83317728  0.42201446
   0.08109209  0.91454650  0.49566361
   0.00000000  0.75000000  0.34745000
   0.16667000  0.83333000  0.19748000
   0.33333000  0.91667000  0.27247000
   0.41774983  0.83253082  0.42290654
   0.33257477  0.91578101  0.49503102
   0.25000000  0.75000000  0.34745000
   0.41667000  0.83333000  0.19748000
   0.46456605  0.79507809  0.58105782
   0.58333000  0.91667000  0.27247000