 vasp.6.2.1 16May21 (build Feb 21 2024 21:23:56) complex                        
  
 executed on             LinuxIFC date 2025.04.07  19:28:42
 running on   32 total cores
 distrk:  each k-point on   32 cores,    1 groups
 distr:  one band on NCORE=   4 cores,    8 groups


--------------------------------------------------------------------------------------------------------


 INCAR:
   ISTART = 1            (Read existing wavefunction, if there)
   ISPIN = 1            (Non-Spin polarised DFT)
   LREAL = .FALSE.       (Projection operators: automatic)
   ENCUT = 520          (Cut-off energy for plane wave basis set, in eV)
   PREC = Accurate   (Precision level: Normal or Accurate, set Accurate when perform structure lattice relaxation calculation)
   LWAVE = .TRUE.        (Write WAVECAR or not)
   LCHARG = .TRUE.        (Write CHGCAR or not)
   ADDGRID = .TRUE.        (Increase grid, helps GGA convergence)
   LASPH = .TRUE.        (Give more accurate total energies and band structure calculations)
   PREC = Accurate      (Accurate strictly avoids any aliasing or wrap around errors)
   ISMEAR = 0            (Gaussian smearing, metals:1)
   SIGMA = 0.05         (Smearing value in eV, metals:0.2)
   NELM = 90           (Max electronic SCF steps)
   NELMIN = 6            (Min electronic SCF steps)
   EDIFF = 1E-06        (SCF energy convergence, in eV)
   NSW = 100          (Max ionic steps)
   IBRION = 2            (Algorithm: 0-MD, 1-Quasi-New, 2-CG)
   ISIF = 2            (Stress/relaxation: 2-Ions, 3-Shape/Ions/V, 4-Shape/Ions)
   EDIFFG = -1E-02        (Ionic convergence, eV/AA)
   ISYM = 2            (Symmetry: 0\=none, 2\=GGA, 3\=hybrids)
   ISPIN = 2
   MAGMOM = 3*1.0 6*0.6
   NCORE = 4

 POTCAR:    PAW_PBE Ce 23Dec2003                  
 POTCAR:    PAW_PBE O 08Apr2002                   
 POTCAR:    PAW_PBE Ce 23Dec2003                  
   VRHFIN =Ce : [core= Kr 4d10]                                                                     
   LEXCH  = PE                                                                                      
   EATOM  =  1063.0861 eV,   78.1346 Ry                                                             
                                                                                                    
   TITEL  = PAW_PBE Ce 23Dec2003                                                                    
   LULTRA =        F    use ultrasoft PP ?                                                          
   IUNSCR =        1    unscreen: 0-lin 1-nonlin 2-no                                               
   RPACOR =    1.800    partial core radius                                                         
   POMASS =  140.115; ZVAL   =   12.000    mass and valenz                                          
   RCORE  =    2.700    outmost cutoff radius                                                       
   RWIGS  =    2.500; RWIGS  =    1.323    wigner-seitz radius (au A)                               
   ENMAX  =  273.042; ENMIN  =  204.781 eV                                                          
   RCLOC  =    1.810    cutoff for local pot                                                        
   LCOR   =        T    correct aug charges                                                         
   LPAW   =        T    paw PP                                                                      
   EAUG   =  580.196                                                                                
   DEXC   =    0.000                                                                                
   RMAX   =    2.749    core radius for proj-oper                                                   
   RAUG   =    1.300    factor for augmentation sphere                                              
   RDEP   =    2.810    radius for radial grids                                                     
   RDEPT  =    2.162    core radius for aug-charge                                                  
                                                                                                    
   Atomic configuration                                                                             
   14 entries                                                                                       
     n  l   j            E        occ.                                                              
     1  0  0.50    -40258.9816   2.0000                                                             
     2  0  0.50     -6445.4884   2.0000                                                             
     2  1  1.50     -5771.7470   6.0000                                                             
     3  0  0.50     -1387.9739   2.0000                                                             
     3  1  1.50     -1173.8158   6.0000                                                             
     3  2  2.50      -869.9108  10.0000                                                             
     4  0  0.50      -280.8706   2.0000                                                             
     4  1  1.50      -210.9815   6.0000                                                             
     4  2  2.50      -110.4558  10.0000                                                             
     5  0  0.50       -40.5819   2.0000                                                             
     6  0  0.50        -3.7444   2.0000                                                             
     5  1  1.50       -23.2188   6.0000                                                             
     5  2  2.50        -3.0598   1.0000                                                             
     4  3  2.50        -5.3970   1.0000                                                             
   Description                                                                                      
     l       E           TYP  RCUT    TYP  RCUT                                                     
     0    -40.5819164     23  1.500                                                                 
     0     -3.7443793     23  2.300                                                                 
     1    -23.2188445     23  2.000                                                                 
     1     40.8174780     23  2.300                                                                 
     2     -3.0597556     23  2.500                                                                 
     2     13.6058260     23  2.500                                                                 
     3     -5.3970469     23  2.700                                                                 
     3     -5.8505052     23  2.700                                                                 
  local pseudopotential read in
  partial core-charges read in
  partial kinetic energy density read in
  atomic valenz-charges read in
  non local Contribution for L=           0  read in
    real space projection operators read in
  non local Contribution for L=           0  read in
    real space projection operators read in
  non local Contribution for L=           1  read in
    real space projection operators read in
  non local Contribution for L=           1  read in
    real space projection operators read in
  non local Contribution for L=           2  read in
    real space projection operators read in
  non local Contribution for L=           2  read in
    real space projection operators read in
  non local Contribution for L=           3  read in
    real space projection operators read in
  non local Contribution for L=           3  read in
    real space projection operators read in
    PAW grid and wavefunctions read in
 
   number of l-projection  operators is LMAX  =           8
   number of lm-projection operators is LMMAX =          32
 
 POTCAR:    PAW_PBE O 08Apr2002                   
   VRHFIN =O: s2p4                                                                                  
   LEXCH  = PE                                                                                      
   EATOM  =   432.3788 eV,   31.7789 Ry                                                             
                                                                                                    
   TITEL  = PAW_PBE O 08Apr2002                                                                     
   LULTRA =        F    use ultrasoft PP ?                                                          
   IUNSCR =        1    unscreen: 0-lin 1-nonlin 2-no                                               
   RPACOR =    1.200    partial core radius                                                         
   POMASS =   16.000; ZVAL   =    6.000    mass and valenz                                          
   RCORE  =    1.520    outmost cutoff radius                                                       
   RWIGS  =    1.550; RWIGS  =    0.820    wigner-seitz radius (au A)                               
   ENMAX  =  400.000; ENMIN  =  300.000 eV                                                          
   ICORE  =        2    local potential                                                             
   LCOR   =        T    correct aug charges                                                         
   LPAW   =        T    paw PP                                                                      
   EAUG   =  605.392                                                                                
   DEXC   =    0.000                                                                                
   RMAX   =    1.553    core radius for proj-oper                                                   
   RAUG   =    1.300    factor for augmentation sphere                                              
   RDEP   =    1.550    radius for radial grids                                                     
   RDEPT  =    1.329    core radius for aug-charge                                                  
                                                                                                    
   Atomic configuration                                                                             
    4 entries                                                                                       
     n  l   j            E        occ.                                                              
     1  0  0.50      -514.6923   2.0000                                                             
     2  0  0.50       -23.9615   2.0000                                                             
     2  1  0.50        -9.0305   4.0000                                                             
     3  2  1.50        -9.5241   0.0000                                                             
   Description                                                                                      
     l       E           TYP  RCUT    TYP  RCUT                                                     
     0    -23.9615318     23  1.200                                                                 
     0     -9.5240782     23  1.200                                                                 
     1     -9.0304911     23  1.520                                                                 
     1      8.1634956     23  1.520                                                                 
     2     -9.5240782      7  1.500                                                                 
  local pseudopotential read in
  partial core-charges read in
  partial kinetic energy density read in
  kinetic energy density of atom read in
  atomic valenz-charges read in
  non local Contribution for L=           0  read in
    real space projection operators read in
  non local Contribution for L=           0  read in
    real space projection operators read in
  non local Contribution for L=           1  read in
    real space projection operators read in
  non local Contribution for L=           1  read in
    real space projection operators read in
    PAW grid and wavefunctions read in
 
   number of l-projection  operators is LMAX  =           4
   number of lm-projection operators is LMMAX =           8
 
  PAW_PBE Ce 23Dec2003                  :
 energy of atom  1       EATOM=-1063.0861
 kinetic energy error for atom=    0.0133 (will be added to EATOM!!)
  PAW_PBE O 08Apr2002                   :
 energy of atom  2       EATOM= -432.3788
 kinetic energy error for atom=    0.0208 (will be added to EATOM!!)
 
 
 POSCAR: cif2pos.py
  positions in direct lattice
  velocities in cartesian coordinates
 exchange correlation table for  LEXCH =        8
   RHO(1)=    0.500       N(1)  =     2000
   RHO(2)=  100.500       N(2)  =     4000
 


--------------------------------------------------------------------------------------------------------


 ion  position               nearest neighbor table
   1  0.700  0.300  0.311-   7 2.18   6 2.28   6 2.28   6 2.28   8 2.43   8 2.43   8 2.43
   2  0.034  0.966  0.437-   8 2.02   5 2.24   5 2.24   5 2.24
   3  0.367  0.633  0.169-   9 1.84   4 2.24   4 2.24   4 2.26   7 2.52   7 2.52   7 2.52
   4  0.032  0.968  0.157-   3 2.24   3 2.24   3 2.26
   5  0.700  0.300  0.431-   2 2.24   2 2.24   2 2.24
   6  0.367  0.633  0.292-   1 2.28   1 2.28   1 2.28
   7  0.700  0.300  0.219-   1 2.18   3 2.52   3 2.52   3 2.52
   8  0.033  0.967  0.352-   2 2.02   1 2.43   1 2.43   1 2.43
   9  0.368  0.632  0.091-   3 1.84
 
  LATTYP: Found a hexagonal cell.
 ALAT       =     3.8661000000
 C/A-ratio  =     6.1252166266
  
  Lattice vectors:
  
 A1 = (   3.8661000000,   0.0000000000,   0.0000000000)
 A2 = (  -1.9330500000,   3.3481408100,   0.0000000000)
 A3 = (   0.0000000000,   0.0000000000,  23.6807000000)


Analysis of symmetry for initial positions (statically):
=====================================================================
 Subroutine PRICEL returns:
 Original cell was already a primitive cell.
 

 Routine SETGRP: Setting up the symmetry group for a 
 hexagonal supercell.


 Subroutine GETGRP returns: Found  2 space group operations
 (whereof  2 operations were pure point group operations)
 out of a pool of 24 trial point group operations.


The static configuration has the point symmetry C_1h.


Analysis of symmetry for dynamics (positions and initial velocities):
=====================================================================
 Subroutine PRICEL returns:
 Original cell was already a primitive cell.
 

 Routine SETGRP: Setting up the symmetry group for a 
 hexagonal supercell.


 Subroutine GETGRP returns: Found  2 space group operations
 (whereof  2 operations were pure point group operations)
 out of a pool of 24 trial point group operations.


The dynamic configuration has the point symmetry C_1h.


 Subroutine INISYM returns: Found  2 space group operations
 (whereof  2 operations are pure point group operations),
 and found     1 'primitive' translations


----------------------------------------------------------------------------------------

                                     Primitive cell                                     

  volume of cell :     306.5288

  direct lattice vectors                    reciprocal lattice vectors
     3.866100000  0.000000000  0.000000000     0.258658597  0.149336610  0.000000000
    -1.933050000  3.348140810  0.000000000     0.000000000  0.298673221  0.000000000
     0.000000000  0.000000000 23.680700000     0.000000000  0.000000000  0.042228481

  length of vectors
     3.866100000  3.866099997 23.680700000     0.298673221  0.298673221  0.042228481

  position of ions in fractional coordinates (direct lattice)
     0.699966354  0.300033646  0.310978614
     0.033538448  0.966461552  0.437310137
     0.366885625  0.633114375  0.169207516
     0.031984601  0.968015399  0.157401119
     0.699678940  0.300321060  0.430855562
     0.366752691  0.633247309  0.291929015
     0.699621089  0.300378911  0.218884619
     0.033223530  0.966776470  0.351810183
     0.368348722  0.631651278  0.091323236

  ion indices of the primitive-cell ions
   primitive index   ion index
                 1           1
                 2           2
                 3           3
                 4           4
                 5           5
                 6           6
                 7           7
                 8           8
                 9           9

----------------------------------------------------------------------------------------

 
 
 KPOINTS: K-Spacing Value to Generate K-Mesh: 0.04

Automatic generation of k-mesh.
 Grid dimensions read from file:
 generate k-points for:    9    9    1

 Generating k-lattice:

  Cartesian coordinates                     Fractional coordinates (reciprocal lattice)
     0.028739844  0.016592957  0.000000000     0.111111111  0.000000000  0.000000000
     0.000000000  0.033185913  0.000000000     0.000000000  0.111111111  0.000000000
     0.000000000  0.000000000  0.042228481     0.000000000  0.000000000  1.000000000

  Length of vectors
     0.033185913  0.033185913  0.042228481

  Shift w.r.t. Gamma in fractional coordinates (k-lattice)
     0.000000000  0.000000000  0.000000000

 
 Subroutine IBZKPT returns following result:
 ===========================================
 
 Found     25 irreducible k-points:
 
 Following reciprocal coordinates:
            Coordinates               Weight
  0.000000  0.000000  0.000000      1.000000
  0.111111  0.000000  0.000000      4.000000
 -0.111111  0.111111  0.000000      2.000000
  0.222222  0.000000  0.000000      4.000000
 -0.222222  0.222222  0.000000      2.000000
  0.333333  0.000000  0.000000      4.000000
 -0.333333  0.333333  0.000000      2.000000
  0.444444  0.000000  0.000000      4.000000
 -0.444444  0.444444  0.000000      2.000000
  0.111111  0.111111  0.000000      2.000000
 -0.111111  0.222222  0.000000      4.000000
  0.222222  0.111111  0.000000      4.000000
 -0.111111  0.333333  0.000000      4.000000
 -0.333333  0.222222  0.000000      4.000000
  0.333333  0.111111  0.000000      4.000000
 -0.111111  0.444444  0.000000      4.000000
 -0.444444  0.333333  0.000000      4.000000
  0.444444  0.111111  0.000000      4.000000
  0.444444  0.444444  0.000000      2.000000
  0.222222  0.222222  0.000000      2.000000
 -0.222222  0.444444  0.000000      4.000000
  0.333333  0.222222  0.000000      4.000000
 -0.222222 -0.444444  0.000000      4.000000
  0.444444  0.333333  0.000000      4.000000
  0.333333  0.333333  0.000000      2.000000
 
 Following cartesian coordinates:
            Coordinates               Weight
  0.000000  0.000000  0.000000      1.000000
  0.028740  0.016593  0.000000      4.000000
 -0.028740  0.016593  0.000000      2.000000
  0.057480  0.033186  0.000000      4.000000
 -0.057480  0.033186  0.000000      2.000000
  0.086220  0.049779  0.000000      4.000000
 -0.086220  0.049779  0.000000      2.000000
  0.114959  0.066372  0.000000      4.000000
 -0.114959  0.066372  0.000000      2.000000
  0.028740  0.049779  0.000000      2.000000
 -0.028740  0.049779  0.000000      4.000000
  0.057480  0.066372  0.000000      4.000000
 -0.028740  0.082965  0.000000      4.000000
 -0.086220  0.016593  0.000000      4.000000
  0.086220  0.082965  0.000000      4.000000
 -0.028740  0.116151  0.000000      4.000000
 -0.114959  0.033186  0.000000      4.000000
  0.114959  0.099558  0.000000      4.000000
  0.114959  0.199115  0.000000      2.000000
  0.057480  0.099558  0.000000      2.000000
 -0.057480  0.099558  0.000000      4.000000
  0.086220  0.116151  0.000000      4.000000
 -0.057480 -0.165930  0.000000      4.000000
  0.114959  0.165930  0.000000      4.000000
  0.086220  0.149337  0.000000      2.000000
 


--------------------------------------------------------------------------------------------------------




 Dimension of arrays:
   k-points           NKPTS =     25   k-points in BZ     NKDIM =     25   number of bands    NBANDS=     48
   number of dos      NEDOS =    301   number of ions     NIONS =      9
   non local maximal  LDIM  =      8   non local SUM 2l+1 LMDIM =     32
   total plane-waves  NPLWV = 162000
   max r-space proj   IRMAX =      1   max aug-charges    IRDMAX= 223032
   dimension x,y,z NGX =    30 NGY =   30 NGZ =  180
   dimension x,y,z NGXF=    60 NGYF=   60 NGZF=  360
   support grid    NGXF=   120 NGYF=  120 NGZF=  720
   ions per type =               3   6
   NGX,Y,Z   is equivalent  to a cutoff of  12.90, 12.90, 12.64 a.u.
   NGXF,Y,Z  is equivalent  to a cutoff of  25.80, 25.80, 25.27 a.u.

 SYSTEM =  unknown system                          
 POSCAR =  cif2pos.py                              

 Startparameter for this run:
   NWRITE =      2    write-flag & timer
   PREC   = accura    normal or accurate (medium, high low for compatibility)
   ISTART =      0    job   : 0-new  1-cont  2-samecut
   ICHARG =      2    charge: 1-file 2-atom 10-const
   ISPIN  =      1    spin polarized calculation?
   LNONCOLLINEAR =      F non collinear calculations
   LSORBIT =      F    spin-orbit coupling
   INIWAV =      1    electr: 0-lowe 1-rand  2-diag
   LASPH  =      T    aspherical Exc in radial PAW
 Electronic Relaxation 1
   ENCUT  =  520.0 eV  38.22 Ry    6.18 a.u.   7.19  7.19 44.03*2*pi/ulx,y,z
   ENINI  =  520.0     initial cutoff
   ENAUG  =  605.4 eV  augmentation charge cutoff
   NELM   =     90;   NELMIN=  6; NELMDL=  0     # of ELM steps 
   EDIFF  = 0.1E-05   stopping-criterion for ELM
   LREAL  =      F    real-space projection
   NLSPLINE    = F    spline interpolate recip. space projectors
   LCOMPAT=      F    compatible to vasp.4.4
   GGA_COMPAT  = T    GGA compatible to vasp.4.4-vasp.4.6
   LMAXPAW     = -100 max onsite density
   LMAXMIX     =    2 max onsite mixed and CHGCAR
   VOSKOWN=      0    Vosko Wilk Nusair interpolation
   ROPT   =    0.00000   0.00000
 Ionic relaxation
   EDIFFG = -.1E-01   stopping-criterion for IOM
   NSW    =    100    number of steps for IOM
   NBLOCK =      1;   KBLOCK =    100    inner block; outer block 
   IBRION =      2    ionic relax: 0-MD 1-quasi-New 2-CG
   NFREE  =      1    steps in history (QN), initial steepest desc. (CG)
   ISIF   =      2    stress and relaxation
   IWAVPR =     11    prediction:  0-non 1-charg 2-wave 3-comb
   ISYM   =      2    0-nonsym 1-usesym 2-fastsym
   LCORR  =      T    Harris-Foulkes like correction to forces

   POTIM  = 0.5000    time-step for ionic-motion
   TEIN   =    0.0    initial temperature
   TEBEG  =    0.0;   TEEND  =   0.0 temperature during run
   SMASS  =  -3.00    Nose mass-parameter (am)
   estimated Nose-frequenzy (Omega)   =  0.10E-29 period in steps = 0.13E+47 mass=  -0.342E-27a.u.
   SCALEE = 1.0000    scale energy and forces
   NPACO  =    256;   APACO  = 16.0  distance and # of slots for P.C.
   PSTRESS=    0.0 pullay stress

  Mass of Ions in am
   POMASS = 140.12 16.00
  Ionic Valenz
   ZVAL   =  12.00  6.00
  Atomic Wigner-Seitz radii
   RWIGS  =  -1.00 -1.00
  virtual crystal weights 
   VCA    =   1.00  1.00
   NELECT =      72.0000    total number of electrons
   NUPDOWN=      -1.0000    fix difference up-down

 DOS related values:
   EMIN   =  10.00;   EMAX   =-10.00  energy-range for DOS
   EFERMI =   0.00
   ISMEAR =     0;   SIGMA  =   0.05  broadening in eV -4-tet -1-fermi 0-gaus

 Electronic relaxation 2 (details)
   IALGO  =     38    algorithm
   LDIAG  =      T    sub-space diagonalisation (order eigenvalues)
   LSUBROT=      F    optimize rotation matrix (better conditioning)
   TURBO    =      0    0=normal 1=particle mesh
   IRESTART =      0    0=no restart 2=restart with 2 vectors
   NREBOOT  =      0    no. of reboots
   NMIN     =      0    reboot dimension
   EREF     =   0.00    reference energy to select bands
   IMIX   =      4    mixing-type and parameters
     AMIX     =   0.40;   BMIX     =  1.00
     AMIX_MAG =   1.60;   BMIX_MAG =  1.00
     AMIN     =   0.10
     WC   =   100.;   INIMIX=   1;  MIXPRE=   1;  MAXMIX= -45

 Intra band minimization:
   WEIMIN = 0.0010     energy-eigenvalue tresh-hold
   EBREAK =  0.52E-08  absolut break condition
   DEPER  =   0.30     relativ break condition  

   TIME   =   0.40     timestep for ELM

  volume/ion in A,a.u.               =      34.06       229.84
  Fermi-wavevector in a.u.,A,eV,Ry     =   1.010094  1.908801 13.881893  1.020290
  Thomas-Fermi vector in A             =   2.143063
 
 Write flags
   LWAVE        =      T    write WAVECAR
   LDOWNSAMPLE  =      F    k-point downsampling of WAVECAR
   LCHARG       =      T    write CHGCAR
   LVTOT        =      F    write LOCPOT, total local potential
   LVHAR        =      F    write LOCPOT, Hartree potential only
   LELF         =      F    write electronic localiz. function (ELF)
   LORBIT       =      0    0 simple, 1 ext, 2 COOP (PROOUT), +10 PAW based schemes


 Dipole corrections
   LMONO  =      F    monopole corrections only (constant potential shift)
   LDIPOL =      F    correct potential (dipole corrections)
   IDIPOL =      0    1-x, 2-y, 3-z, 4-all directions 
   EPSILON=  1.0000000 bulk dielectric constant

 Exchange correlation treatment:
   GGA     =    --    GGA type
   LEXCH   =     8    internal setting for exchange type
   VOSKOWN=      0    Vosko Wilk Nusair interpolation
   LHFCALC =     F    Hartree Fock is set to
   LHFONE  =     F    Hartree Fock one center treatment
   AEXX    =    0.0000 exact exchange contribution

 Linear response parameters
   LEPSILON=     F    determine dielectric tensor
   LRPA    =     F    only Hartree local field effects (RPA)
   LNABLA  =     F    use nabla operator in PAW spheres
   LVEL    =     F    velocity operator in full k-point grid
   LINTERFAST=   F  fast interpolation
   KINTER  =     0    interpolate to denser k-point grid
   CSHIFT  =0.1000    complex shift for real part using Kramers Kronig
   OMEGAMAX=  -1.0    maximum frequency
   DEG_THRESHOLD= 0.2000000E-02 threshold for treating states as degnerate
   RTIME   =   -0.100 relaxation time in fs
  (WPLASMAI=    0.000 imaginary part of plasma frequency in eV, 0.658/RTIME)
   DFIELD  = 0.0000000 0.0000000 0.0000000 field for delta impulse in time
 
 Orbital magnetization related:
   ORBITALMAG=     F  switch on orbital magnetization
   LCHIMAG   =     F  perturbation theory with respect to B field
   DQ        =  0.001000  dq finite difference perturbation B field
   LLRAUG    =     F  two centre corrections for induced B field



--------------------------------------------------------------------------------------------------------


 conjugate gradient relaxation of ions
 charge density and potential will be updated during run
 non-spin polarized calculation
 Variant of blocked Davidson
 Davidson routine will perform the subspace rotation
 perform sub-space diagonalisation
    after iterative eigenvector-optimisation
 modified Broyden-mixing scheme, WC =      100.0
 initial mixing is a Kerker type mixing with AMIX =  0.4000 and BMIX =      1.0000
 Hartree-type preconditioning will be used
 using additional bands           12
 reciprocal scheme for non local part
 use partial core corrections
 calculate Harris-corrections to forces 
   (improved forces if not selfconsistent)
 use gradient corrections 
 use of overlap-Matrix (Vanderbilt PP)
 Gauss-broadening in eV      SIGMA  =   0.05


--------------------------------------------------------------------------------------------------------


  energy-cutoff  :      520.00
  volume of cell :      306.53
      direct lattice vectors                 reciprocal lattice vectors
     3.866100000  0.000000000  0.000000000     0.258658597  0.149336610  0.000000000
    -1.933050000  3.348140810  0.000000000     0.000000000  0.298673221  0.000000000
     0.000000000  0.000000000 23.680700000     0.000000000  0.000000000  0.042228481

  length of vectors
     3.866100000  3.866099997 23.680700000     0.298673221  0.298673221  0.042228481


 
 k-points in units of 2pi/SCALE and weight: K-Spacing Value to Generate K-Mesh: 0.04
   0.00000000  0.00000000  0.00000000       0.012
   0.02873984  0.01659296  0.00000000       0.049
  -0.02873984  0.01659296  0.00000000       0.025
   0.05747969  0.03318591  0.00000000       0.049
  -0.05747969  0.03318591  0.00000000       0.025
   0.08621953  0.04977887  0.00000000       0.049
  -0.08621953  0.04977887  0.00000000       0.025
   0.11495938  0.06637183  0.00000000       0.049
  -0.11495938  0.06637183  0.00000000       0.025
   0.02873984  0.04977887  0.00000000       0.025
  -0.02873984  0.04977887  0.00000000       0.049
   0.05747969  0.06637183  0.00000000       0.049
  -0.02873984  0.08296478  0.00000000       0.049
  -0.08621953  0.01659296  0.00000000       0.049
   0.08621953  0.08296478  0.00000000       0.049
  -0.02873984  0.11615070  0.00000000       0.049
  -0.11495938  0.03318591  0.00000000       0.049
   0.11495938  0.09955774  0.00000000       0.049
   0.11495938  0.19911548  0.00000000       0.025
   0.05747969  0.09955774  0.00000000       0.025
  -0.05747969  0.09955774  0.00000000       0.049
   0.08621953  0.11615070  0.00000000       0.049
  -0.05747969 -0.16592957  0.00000000       0.049
   0.11495938  0.16592957  0.00000000       0.049
   0.08621953  0.14933661  0.00000000       0.025
 
 k-points in reciprocal lattice and weights: K-Spacing Value to Generate K-Mesh: 0.04
   0.00000000  0.00000000  0.00000000       0.012
   0.11111111  0.00000000  0.00000000       0.049
  -0.11111111  0.11111111  0.00000000       0.025
   0.22222222  0.00000000  0.00000000       0.049
  -0.22222222  0.22222222  0.00000000       0.025
   0.33333333  0.00000000  0.00000000       0.049
  -0.33333333  0.33333333  0.00000000       0.025
   0.44444444  0.00000000  0.00000000       0.049
  -0.44444444  0.44444444  0.00000000       0.025
   0.11111111  0.11111111  0.00000000       0.025
  -0.11111111  0.22222222  0.00000000       0.049
   0.22222222  0.11111111  0.00000000       0.049
  -0.11111111  0.33333333  0.00000000       0.049
  -0.33333333  0.22222222  0.00000000       0.049
   0.33333333  0.11111111  0.00000000       0.049
  -0.11111111  0.44444444  0.00000000       0.049
  -0.44444444  0.33333333  0.00000000       0.049
   0.44444444  0.11111111  0.00000000       0.049
   0.44444444  0.44444444  0.00000000       0.025
   0.22222222  0.22222222  0.00000000       0.025
  -0.22222222  0.44444444  0.00000000       0.049
   0.33333333  0.22222222  0.00000000       0.049
  -0.22222222 -0.44444444  0.00000000       0.049
   0.44444444  0.33333333  0.00000000       0.049
   0.33333333  0.33333333  0.00000000       0.025
 
 position of ions in fractional coordinates (direct lattice) 
   0.69996635  0.30003365  0.31097861
   0.03353845  0.96646155  0.43731014
   0.36688563  0.63311437  0.16920752
   0.03198460  0.96801540  0.15740112
   0.69967894  0.30032106  0.43085556
   0.36675269  0.63324731  0.29192902
   0.69962109  0.30037891  0.21888462
   0.03322353  0.96677647  0.35181018
   0.36834872  0.63165128  0.09132324
 
 position of ions in cartesian coordinates  (Angst):
   2.12615988  1.00455490  7.36419126
  -1.73855551  3.23584936 10.35581016
   0.19457477  2.11975608  4.00695242
  -1.74756650  3.24105186  3.72736868
   2.12449312  1.00551720 10.20296130
   0.19380387  2.12020116  6.91308343
   2.12415764  1.00571089  5.18334099
  -1.74038177  3.23690375  8.33111140
   0.20305949  2.11485742  2.16259816
 


--------------------------------------------------------------------------------------------------------


 k-point   1 :   0.0000 0.0000 0.0000  plane waves:    8195
 k-point   2 :   0.1111 0.0000 0.0000  plane waves:    8285
 k-point   3 :  -0.1111 0.1111 0.0000  plane waves:    8285
 k-point   4 :   0.2222 0.0000 0.0000  plane waves:    8251
 k-point   5 :  -0.2222 0.2222 0.0000  plane waves:    8251
 k-point   6 :   0.3333 0.0000 0.0000  plane waves:    8252
 k-point   7 :  -0.3333 0.3333 0.0000  plane waves:    8252
 k-point   8 :   0.4444 0.0000 0.0000  plane waves:    8272
 k-point   9 :  -0.4444 0.4444 0.0000  plane waves:    8272
 k-point  10 :   0.1111 0.1111 0.0000  plane waves:    8265
 k-point  11 :  -0.1111 0.2222 0.0000  plane waves:    8265
 k-point  12 :   0.2222 0.1111 0.0000  plane waves:    8224
 k-point  13 :  -0.1111 0.3333 0.0000  plane waves:    8224
 k-point  14 :  -0.3333 0.2222 0.0000  plane waves:    8224
 k-point  15 :   0.3333 0.1111 0.0000  plane waves:    8244
 k-point  16 :  -0.1111 0.4444 0.0000  plane waves:    8244
 k-point  17 :  -0.4444 0.3333 0.0000  plane waves:    8244
 k-point  18 :   0.4444 0.1111 0.0000  plane waves:    8274
 k-point  19 :   0.4444 0.4444 0.0000  plane waves:    8274
 k-point  20 :   0.2222 0.2222 0.0000  plane waves:    8243
 k-point  21 :  -0.2222 0.4444 0.0000  plane waves:    8243
 k-point  22 :   0.3333 0.2222 0.0000  plane waves:    8275
 k-point  23 :  -0.2222-0.4444 0.0000  plane waves:    8275
 k-point  24 :   0.4444 0.3333 0.0000  plane waves:    8275
 k-point  25 :   0.3333 0.3333 0.0000  plane waves:    8271

 maximum and minimum number of plane-waves per node :      2093     2036

 maximum number of plane-waves:      8285
 maximum index in each direction: 
   IXMAX=    7   IYMAX=    7   IZMAX=   44
   IXMIN=   -7   IYMIN=   -7   IZMIN=  -44


 parallel 3D FFT for wavefunctions:
    minimum data exchange during FFTs selected (reduces bandwidth)
 parallel 3D FFT for charge:
    minimum data exchange during FFTs selected (reduces bandwidth)


 total amount of memory used by VASP MPI-rank0    73807. kBytes
=======================================================================

   base      :      30000. kBytes
   nonl-proj :      26923. kBytes
   fftplans  :       7470. kBytes
   grid      :       4160. kBytes
   one-center:        147. kBytes
   wavefun   :       5107. kBytes
 
     INWAV:  cpu time    0.0000: real time    0.0000
 Broyden mixing: mesh for mixing (old mesh)
   NGX = 15   NGY = 15   NGZ = 89
  (NGX  = 60   NGY  = 60   NGZ  =360)
  gives a total of  20025 points

 initial charge density was supplied:
 charge density of overlapping atoms calculated
 number of electron      72.0000000 magnetization 
 keeping initial charge density in first step


--------------------------------------------------------------------------------------------------------


 Maximum index for augmentation-charges         8125 (set IRDMAX)


--------------------------------------------------------------------------------------------------------


 First call to EWALD:  gamma=   0.263
 Maximum number of real-space cells 5x 5x 1
 Maximum number of reciprocal cells 2x 2x 8

    FEWALD:  cpu time    0.0014: real time    0.0014


--------------------------------------- Iteration      1(   1)  ---------------------------------------


    POTLOK:  cpu time    0.0419: real time    0.0420
    SETDIJ:  cpu time    0.4387: real time    0.4387
     EDDAV:  cpu time    2.8467: real time    2.8467
       DOS:  cpu time    0.0014: real time    0.0014
    --------------------------------------------
      LOOP:  cpu time    3.3287: real time    3.3288

 eigenvalue-minimisations  :  2400
 total energy-change (2. order) : 0.1072714E+04  (-0.3020844E+04)
 number of electron      72.0000000 magnetization 
 augmentation part       72.0000000 magnetization 

 Free energy of the ion-electron system (eV)
  ---------------------------------------------------
  alpha Z        PSCENC =       156.23033799
  Ewald energy   TEWEN  =     20930.84606416
  -Hartree energ DENC   =    -26091.67451397
  -exchange      EXHF   =         0.00000000
  -V(xc)+E(xc)   XCENC  =       182.21266933
  PAW double counting   =      4631.81705925    -4569.87204436
  entropy T*S    EENTRO =        -0.00359686
  eigenvalues    EBANDS =        49.79171693
  atomic energy  EATOM  =      5783.36633218
  Solvation  Ediel_sol  =         0.00000000
  ---------------------------------------------------
  free energy    TOTEN  =      1072.71402466 eV

  energy without entropy =     1072.71762151  energy(sigma->0) =     1072.71582308


--------------------------------------------------------------------------------------------------------




--------------------------------------- Iteration      1(   2)  ---------------------------------------


     EDDAV:  cpu time    3.2333: real time    3.2333
       DOS:  cpu time    0.0009: real time    0.0009
    --------------------------------------------
      LOOP:  cpu time    3.2341: real time    3.2342

 eigenvalue-minimisations  :  2984
 total energy-change (2. order) :-0.7525795E+03  (-0.6706851E+03)
 number of electron      72.0000000 magnetization 
 augmentation part       72.0000000 magnetization 

 Free energy of the ion-electron system (eV)
  ---------------------------------------------------
  alpha Z        PSCENC =       156.23033799
  Ewald energy   TEWEN  =     20930.84606416
  -Hartree energ DENC   =    -26091.67451397
  -exchange      EXHF   =         0.00000000
  -V(xc)+E(xc)   XCENC  =       182.21266933
  PAW double counting   =      4631.81705925    -4569.87204436
  entropy T*S    EENTRO =        -0.02030918
  eigenvalues    EBANDS =      -702.77110310
  atomic energy  EATOM  =      5783.36633218
  Solvation  Ediel_sol  =         0.00000000
  ---------------------------------------------------
  free energy    TOTEN  =       320.13449230 eV

  energy without entropy =      320.15480148  energy(sigma->0) =      320.14464689


--------------------------------------------------------------------------------------------------------




--------------------------------------- Iteration      1(   3)  ---------------------------------------


     EDDAV:  cpu time    3.5945: real time    3.5946
       DOS:  cpu time    0.0008: real time    0.0008
    --------------------------------------------
      LOOP:  cpu time    3.5953: real time    3.5954

 eigenvalue-minimisations  :  3440
 total energy-change (2. order) :-0.3617926E+03  (-0.3496101E+03)
 number of electron      72.0000000 magnetization 
 augmentation part       72.0000000 magnetization 

 Free energy of the ion-electron system (eV)
  ---------------------------------------------------
  alpha Z        PSCENC =       156.23033799
  Ewald energy   TEWEN  =     20930.84606416
  -Hartree energ DENC   =    -26091.67451397
  -exchange      EXHF   =         0.00000000
  -V(xc)+E(xc)   XCENC  =       182.21266933
  PAW double counting   =      4631.81705925    -4569.87204436
  entropy T*S    EENTRO =        -0.00474243
  eigenvalues    EBANDS =     -1064.57930989
  atomic energy  EATOM  =      5783.36633218
  Solvation  Ediel_sol  =         0.00000000
  ---------------------------------------------------
  free energy    TOTEN  =       -41.65814774 eV

  energy without entropy =      -41.65340530  energy(sigma->0) =      -41.65577652


--------------------------------------------------------------------------------------------------------




--------------------------------------- Iteration      1(   4)  ---------------------------------------


     EDDAV:  cpu time    3.6393: real time    3.6397
       DOS:  cpu time    0.0004: real time    0.0004
    --------------------------------------------
      LOOP:  cpu time    3.6397: real time    3.6401

 eigenvalue-minimisations  :  3504
 total energy-change (2. order) :-0.4816674E+02  (-0.4699542E+02)
 number of electron      72.0000000 magnetization 
 augmentation part       72.0000000 magnetization 

 Free energy of the ion-electron system (eV)
  ---------------------------------------------------
  alpha Z        PSCENC =       156.23033799
  Ewald energy   TEWEN  =     20930.84606416
  -Hartree energ DENC   =    -26091.67451397
  -exchange      EXHF   =         0.00000000
  -V(xc)+E(xc)   XCENC  =       182.21266933
  PAW double counting   =      4631.81705925    -4569.87204436
  entropy T*S    EENTRO =        -0.00000000
  eigenvalues    EBANDS =     -1112.75078799
  atomic energy  EATOM  =      5783.36633218
  Solvation  Ediel_sol  =         0.00000000
  ---------------------------------------------------
  free energy    TOTEN  =       -89.82488340 eV

  energy without entropy =      -89.82488340  energy(sigma->0) =      -89.82488340


--------------------------------------------------------------------------------------------------------




--------------------------------------- Iteration      1(   5)  ---------------------------------------


     EDDAV:  cpu time    4.1723: real time    4.1726
       DOS:  cpu time    0.0004: real time    0.0004
    CHARGE:  cpu time    0.2794: real time    0.2794
    MIXING:  cpu time    0.0110: real time    0.0110
    --------------------------------------------
      LOOP:  cpu time    4.4631: real time    4.4634

 eigenvalue-minimisations  :  4184
 total energy-change (2. order) :-0.2224786E+01  (-0.2222199E+01)
 number of electron      71.9999999 magnetization 
 augmentation part       -0.3437017 magnetization 

 Broyden mixing:
  rms(total) = 0.70582E+01    rms(broyden)= 0.70581E+01
  rms(prec ) = 0.71942E+01
  weight for this iteration     100.00

 Free energy of the ion-electron system (eV)
  ---------------------------------------------------
  alpha Z        PSCENC =       156.23033799
  Ewald energy   TEWEN  =     20930.84606416
  -Hartree energ DENC   =    -26091.67451397
  -exchange      EXHF   =         0.00000000
  -V(xc)+E(xc)   XCENC  =       182.21266933
  PAW double counting   =      4631.81705925    -4569.87204436
  entropy T*S    EENTRO =        -0.00000000
  eigenvalues    EBANDS =     -1114.97557434
  atomic energy  EATOM  =      5783.36633218
  Solvation  Ediel_sol  =         0.00000000
  ---------------------------------------------------
  free energy    TOTEN  =       -92.04966975 eV

  energy without entropy =      -92.04966975  energy(sigma->0) =      -92.04966975


--------------------------------------------------------------------------------------------------------




--------------------------------------- Iteration      1(   6)  ---------------------------------------


    POTLOK:  cpu time    0.0365: real time    0.0365
    SETDIJ:  cpu time    0.4331: real time    0.4331
     EDDAV:  cpu time    4.0321: real time    4.0322
       DOS:  cpu time    0.0009: real time    0.0009
    CHARGE:  cpu time    0.2740: real time    0.2740
    MIXING:  cpu time    0.0117: real time    0.0117
    --------------------------------------------
      LOOP:  cpu time    4.7884: real time    4.7885

 eigenvalue-minimisations  :  4000
 total energy-change (2. order) :-0.8321926E+02  (-0.9722871E+02)
 number of electron      72.0000001 magnetization 
 augmentation part       13.2978180 magnetization 

 Broyden mixing:
  rms(total) = 0.14265E+02    rms(broyden)= 0.14264E+02
  rms(prec ) = 0.17526E+02
  weight for this iteration     100.00

 eigenvalues of (default mixing * dielectric matrix)
  average eigenvalue GAMMA=   0.1992
  0.1992

 Free energy of the ion-electron system (eV)
  ---------------------------------------------------
  alpha Z        PSCENC =       156.23033799
  Ewald energy   TEWEN  =     20930.84606416
  -Hartree energ DENC   =    -26222.87625056
  -exchange      EXHF   =         0.00000000
  -V(xc)+E(xc)   XCENC  =       190.65082720
  PAW double counting   =      5090.58648643    -5026.71087522
  entropy T*S    EENTRO =        -0.02029757
  eigenvalues    EBANDS =     -1077.34155448
  atomic energy  EATOM  =      5783.36633218
  Solvation  Ediel_sol  =         0.00000000
  ---------------------------------------------------
  free energy    TOTEN  =      -175.26892986 eV

  energy without entropy =     -175.24863230  energy(sigma->0) =     -175.25878108


--------------------------------------------------------------------------------------------------------




--------------------------------------- Iteration      1(   7)  ---------------------------------------


    POTLOK:  cpu time    0.0372: real time    0.0372
    SETDIJ:  cpu time    0.4350: real time    0.4350
     EDDAV:  cpu time    4.1149: real time    4.1150
       DOS:  cpu time    0.0008: real time    0.0008
    CHARGE:  cpu time    0.2739: real time    0.2739
    MIXING:  cpu time    0.0112: real time    0.0112
    --------------------------------------------
      LOOP:  cpu time    4.8730: real time    4.8730

 eigenvalue-minimisations  :  4112
 total energy-change (2. order) : 0.8871716E+02  (-0.2135230E+03)
 number of electron      72.0000000 magnetization 
 augmentation part        7.1672741 magnetization 

 Broyden mixing:
  rms(total) = 0.15261E+02    rms(broyden)= 0.15261E+02
  rms(prec ) = 0.16681E+02
  weight for this iteration     100.00

 eigenvalues of (default mixing * dielectric matrix)
  average eigenvalue GAMMA=   0.1037
  0.1907  0.0167

 Free energy of the ion-electron system (eV)
  ---------------------------------------------------
  alpha Z        PSCENC =       156.23033799
  Ewald energy   TEWEN  =     20930.84606416
  -Hartree energ DENC   =    -26222.00604279
  -exchange      EXHF   =         0.00000000
  -V(xc)+E(xc)   XCENC  =       188.76522684
  PAW double counting   =      5181.23563502    -5125.78583828
  entropy T*S    EENTRO =        -0.01065589
  eigenvalues    EBANDS =      -979.19283072
  atomic energy  EATOM  =      5783.36633218
  Solvation  Ediel_sol  =         0.00000000
  ---------------------------------------------------
  free energy    TOTEN  =       -86.55177150 eV

  energy without entropy =      -86.54111560  energy(sigma->0) =      -86.54644355


--------------------------------------------------------------------------------------------------------




--------------------------------------- Iteration      1(   8)  ---------------------------------------


    POTLOK:  cpu time    0.0372: real time    0.0372
    SETDIJ:  cpu time    0.4401: real time    0.4401
     EDDAV:  cpu time    3.8682: real time    3.8682
       DOS:  cpu time    0.0009: real time    0.0009
    CHARGE:  cpu time    0.2733: real time    0.2733
    MIXING:  cpu time    0.0118: real time    0.0118
    --------------------------------------------
      LOOP:  cpu time    4.6314: real time    4.6315

 eigenvalue-minimisations  :  3808
 total energy-change (2. order) :-0.1659255E+02  (-0.2660388E+02)
 number of electron      72.0000000 magnetization 
 augmentation part        6.0534310 magnetization 

 Broyden mixing:
  rms(total) = 0.88030E+01    rms(broyden)= 0.88029E+01
  rms(prec ) = 0.11292E+02
  weight for this iteration     100.00

 eigenvalues of (default mixing * dielectric matrix)
  average eigenvalue GAMMA=   0.1885
  0.3479  0.1852  0.0323

 Free energy of the ion-electron system (eV)
  ---------------------------------------------------
  alpha Z        PSCENC =       156.23033799
  Ewald energy   TEWEN  =     20930.84606416
  -Hartree energ DENC   =    -26224.28974273
  -exchange      EXHF   =         0.00000000
  -V(xc)+E(xc)   XCENC  =       188.58523979
  PAW double counting   =      5191.19955083    -5136.34480558
  entropy T*S    EENTRO =        -0.02969703
  eigenvalues    EBANDS =      -992.70759727
  atomic energy  EATOM  =      5783.36633218
  Solvation  Ediel_sol  =         0.00000000
  ---------------------------------------------------
  free energy    TOTEN  =      -103.14431765 eV

  energy without entropy =     -103.11462062  energy(sigma->0) =     -103.12946914


--------------------------------------------------------------------------------------------------------




--------------------------------------- Iteration      1(   9)  ---------------------------------------


    POTLOK:  cpu time    0.0374: real time    0.0374
    SETDIJ:  cpu time    0.4389: real time    0.4389
     EDDAV:  cpu time    4.0360: real time    4.0361
       DOS:  cpu time    0.0008: real time    0.0008
    CHARGE:  cpu time    0.2789: real time    0.2789
    MIXING:  cpu time    0.0113: real time    0.0113
    --------------------------------------------
      LOOP:  cpu time    4.8033: real time    4.8034

 eigenvalue-minimisations  :  4000
 total energy-change (2. order) :-0.6756191E+01  (-0.1441141E+03)
 number of electron      72.0000000 magnetization 
 augmentation part        5.2490354 magnetization 

 Broyden mixing:
  rms(total) = 0.80495E+01    rms(broyden)= 0.80490E+01
  rms(prec ) = 0.10197E+02
  weight for this iteration     100.00

 eigenvalues of (default mixing * dielectric matrix)
  average eigenvalue GAMMA=   0.1937
  0.3312  0.3312  0.0608  0.0514

 Free energy of the ion-electron system (eV)
  ---------------------------------------------------
  alpha Z        PSCENC =       156.23033799
  Ewald energy   TEWEN  =     20930.84606416
  -Hartree energ DENC   =    -26239.47576302
  -exchange      EXHF   =         0.00000000
  -V(xc)+E(xc)   XCENC  =       188.55026579
  PAW double counting   =      5248.92844041    -5198.09225050
  entropy T*S    EENTRO =        -0.00551197
  eigenvalues    EBANDS =      -980.24842340
  atomic energy  EATOM  =      5783.36633218
  Solvation  Ediel_sol  =         0.00000000
  ---------------------------------------------------
  free energy    TOTEN  =      -109.90050836 eV

  energy without entropy =     -109.89499639  energy(sigma->0) =     -109.89775237


--------------------------------------------------------------------------------------------------------




--------------------------------------- Iteration      1(  10)  ---------------------------------------


    POTLOK:  cpu time    0.0371: real time    0.0371
    SETDIJ:  cpu time    0.4395: real time    0.4395
     EDDAV:  cpu time    4.2743: real time    4.2744
       DOS:  cpu time    0.0009: real time    0.0009
    CHARGE:  cpu time    0.2715: real time    0.2715
    MIXING:  cpu time    0.0118: real time    0.0118
    --------------------------------------------
      LOOP:  cpu time    5.0352: real time    5.0352

 eigenvalue-minimisations  :  4320
 total energy-change (2. order) : 0.4863205E+01  (-0.9595345E+02)
 number of electron      72.0000000 magnetization 
 augmentation part        5.1986598 magnetization 

 Broyden mixing:
  rms(total) = 0.87158E+01    rms(broyden)= 0.87157E+01
  rms(prec ) = 0.11367E+02
  weight for this iteration     100.00

 eigenvalues of (default mixing * dielectric matrix)
  average eigenvalue GAMMA=   0.2778
  0.5661  0.5661  0.0416  0.1077  0.1077

 Free energy of the ion-electron system (eV)
  ---------------------------------------------------
  alpha Z        PSCENC =       156.23033799
  Ewald energy   TEWEN  =     20930.84606416
  -Hartree energ DENC   =    -26311.16351164
  -exchange      EXHF   =         0.00000000
  -V(xc)+E(xc)   XCENC  =       187.82178984
  PAW double counting   =      5288.86490332    -5239.22883277
  entropy T*S    EENTRO =        -0.01707863
  eigenvalues    EBANDS =      -901.75730831
  atomic energy  EATOM  =      5783.36633218
  Solvation  Ediel_sol  =         0.00000000
  ---------------------------------------------------
  free energy    TOTEN  =      -105.03730386 eV

  energy without entropy =     -105.02022523  energy(sigma->0) =     -105.02876454


--------------------------------------------------------------------------------------------------------




--------------------------------------- Iteration      1(  11)  ---------------------------------------


    POTLOK:  cpu time    0.0371: real time    0.0371
    SETDIJ:  cpu time    0.4345: real time    0.4345
     EDDAV:  cpu time    3.7203: real time    3.7203
       DOS:  cpu time    0.0008: real time    0.0008
    CHARGE:  cpu time    0.2769: real time    0.2771
    MIXING:  cpu time    0.0107: real time    0.0107
    --------------------------------------------
      LOOP:  cpu time    4.4803: real time    4.4805

 eigenvalue-minimisations  :  3616
 total energy-change (2. order) : 0.8644789E+01  (-0.2770118E+02)
 number of electron      71.9999999 magnetization 
 augmentation part       -0.9455208 magnetization 

 Broyden mixing:
  rms(total) = 0.61859E+01    rms(broyden)= 0.61855E+01
  rms(prec ) = 0.63029E+01
  weight for this iteration     100.00

 eigenvalues of (default mixing * dielectric matrix)
  average eigenvalue GAMMA=   0.5693
  2.4302  0.3652  0.3652  0.0418  0.1068  0.1068

 Free energy of the ion-electron system (eV)
  ---------------------------------------------------
  alpha Z        PSCENC =       156.23033799
  Ewald energy   TEWEN  =     20930.84606416
  -Hartree energ DENC   =    -26307.61270313
  -exchange      EXHF   =         0.00000000
  -V(xc)+E(xc)   XCENC  =       186.91068907
  PAW double counting   =      5377.73778611    -5329.79010527
  entropy T*S    EENTRO =        -0.00103384
  eigenvalues    EBANDS =      -894.07988212
  atomic energy  EATOM  =      5783.36633218
  Solvation  Ediel_sol  =         0.00000000
  ---------------------------------------------------
  free energy    TOTEN  =       -96.39251484 eV

  energy without entropy =      -96.39148100  energy(sigma->0) =      -96.39199792


--------------------------------------------------------------------------------------------------------




--------------------------------------- Iteration      1(  12)  ---------------------------------------


    POTLOK:  cpu time    0.0360: real time    0.0360
    SETDIJ:  cpu time    0.4390: real time    0.4390
     EDDAV:  cpu time    3.9828: real time    3.9828
       DOS:  cpu time    0.0008: real time    0.0008
    CHARGE:  cpu time    0.2738: real time    0.2738
    MIXING:  cpu time    0.0102: real time    0.0102
    --------------------------------------------
      LOOP:  cpu time    4.7426: real time    4.7426

 eigenvalue-minimisations  :  3952
 total energy-change (2. order) :-0.9110775E+01  (-0.9219486E+01)
 number of electron      71.9999999 magnetization 
 augmentation part       -1.0518141 magnetization 

 Broyden mixing:
  rms(total) = 0.41150E+01    rms(broyden)= 0.41147E+01
  rms(prec ) = 0.46481E+01
  weight for this iteration     100.00

 eigenvalues of (default mixing * dielectric matrix)
  average eigenvalue GAMMA=   0.5539
  2.4930  0.3875  0.3875  0.3540  0.1066  0.1066  0.0418

 Free energy of the ion-electron system (eV)
  ---------------------------------------------------
  alpha Z        PSCENC =       156.23033799
  Ewald energy   TEWEN  =     20930.84606416
  -Hartree energ DENC   =    -26367.60496940
  -exchange      EXHF   =         0.00000000
  -V(xc)+E(xc)   XCENC  =       188.07524536
  PAW double counting   =      5758.18141384    -5715.09104379
  entropy T*S    EENTRO =        -0.00607700
  eigenvalues    EBANDS =      -839.50059336
  atomic energy  EATOM  =      5783.36633218
  Solvation  Ediel_sol  =         0.00000000
  ---------------------------------------------------
  free energy    TOTEN  =      -105.50329002 eV

  energy without entropy =     -105.49721302  energy(sigma->0) =     -105.50025152


--------------------------------------------------------------------------------------------------------




--------------------------------------- Iteration      1(  13)  ---------------------------------------


    POTLOK:  cpu time    0.0362: real time    0.0362
    SETDIJ:  cpu time    0.4357: real time    0.4357
     EDDAV:  cpu time    4.2177: real time    4.2178
       DOS:  cpu time    0.0006: real time    0.0006
    CHARGE:  cpu time    0.2779: real time    0.2779
    MIXING:  cpu time    0.0101: real time    0.0101
    --------------------------------------------
      LOOP:  cpu time    4.9782: real time    4.9783

 eigenvalue-minimisations  :  4256
 total energy-change (2. order) : 0.9574825E+01  (-0.3799223E+01)
 number of electron      71.9999999 magnetization 
 augmentation part       -0.8406895 magnetization 

 Broyden mixing:
  rms(total) = 0.37793E+01    rms(broyden)= 0.37789E+01
  rms(prec ) = 0.39448E+01
  weight for this iteration     100.00

 eigenvalues of (default mixing * dielectric matrix)
  average eigenvalue GAMMA=   0.5389
  2.4701  0.4563  0.4563  0.3367  0.3367  0.0418  0.1066  0.1066

 Free energy of the ion-electron system (eV)
  ---------------------------------------------------
  alpha Z        PSCENC =       156.23033799
  Ewald energy   TEWEN  =     20930.84606416
  -Hartree energ DENC   =    -26321.86081056
  -exchange      EXHF   =         0.00000000
  -V(xc)+E(xc)   XCENC  =       187.99630001
  PAW double counting   =      5723.28429085    -5678.67400023
  entropy T*S    EENTRO =        -0.00000002
  eigenvalues    EBANDS =      -877.11697913
  atomic energy  EATOM  =      5783.36633218
  Solvation  Ediel_sol  =         0.00000000
  ---------------------------------------------------
  free energy    TOTEN  =       -95.92846474 eV

  energy without entropy =      -95.92846472  energy(sigma->0) =      -95.92846473


--------------------------------------------------------------------------------------------------------




--------------------------------------- Iteration      1(  14)  ---------------------------------------


    POTLOK:  cpu time    0.0362: real time    0.0362
    SETDIJ:  cpu time    0.4406: real time    0.4406
     EDDAV:  cpu time    3.9918: real time    3.9919
       DOS:  cpu time    0.0009: real time    0.0009
    CHARGE:  cpu time    0.2746: real time    0.2746
    MIXING:  cpu time    0.0110: real time    0.0110
    --------------------------------------------
      LOOP:  cpu time    4.7552: real time    4.7552

 eigenvalue-minimisations  :  3968
 total energy-change (2. order) : 0.6539935E+01  (-0.7673096E+00)
 number of electron      71.9999999 magnetization 
 augmentation part       -1.0132722 magnetization 

 Broyden mixing:
  rms(total) = 0.38503E+01    rms(broyden)= 0.38501E+01
  rms(prec ) = 0.39983E+01
  weight for this iteration     100.00

 eigenvalues of (default mixing * dielectric matrix)
  average eigenvalue GAMMA=   0.5671
  2.2955  0.7706  0.7706  0.3704  0.3704  0.0418  0.1066  0.1066  0.2717

 Free energy of the ion-electron system (eV)
  ---------------------------------------------------
  alpha Z        PSCENC =       156.23033799
  Ewald energy   TEWEN  =     20930.84606416
  -Hartree energ DENC   =    -26327.96856679
  -exchange      EXHF   =         0.00000000
  -V(xc)+E(xc)   XCENC  =       188.56914552
  PAW double counting   =      5723.10101576    -5677.45397946
  entropy T*S    EENTRO =        -0.01204480
  eigenvalues    EBANDS =      -866.06683387
  atomic energy  EATOM  =      5783.36633218
  Solvation  Ediel_sol  =         0.00000000
  ---------------------------------------------------
  free energy    TOTEN  =       -89.38852931 eV

  energy without entropy =      -89.37648450  energy(sigma->0) =      -89.38250690


--------------------------------------------------------------------------------------------------------




--------------------------------------- Iteration      1(  15)  ---------------------------------------


    POTLOK:  cpu time    0.0366: real time    0.0366
    SETDIJ:  cpu time    0.4388: real time    0.4388
     EDDAV:  cpu time    3.9195: real time    3.9196
       DOS:  cpu time    0.0009: real time    0.0009
    CHARGE:  cpu time    0.2770: real time    0.2770
    MIXING:  cpu time    0.0108: real time    0.0108
    --------------------------------------------
      LOOP:  cpu time    4.6836: real time    4.6837

 eigenvalue-minimisations  :  3880
 total energy-change (2. order) : 0.7072514E+01  (-0.9413513E+00)
 number of electron      71.9999999 magnetization 
 augmentation part       -1.0260238 magnetization 

 Broyden mixing:
  rms(total) = 0.34035E+01    rms(broyden)= 0.34034E+01
  rms(prec ) = 0.34795E+01
  weight for this iteration     100.00

 eigenvalues of (default mixing * dielectric matrix)
  average eigenvalue GAMMA=   0.5981
  2.1397  1.0050  1.0050  0.5329  0.3859  0.3859  0.0418  0.1066  0.1066  0.2715

 Free energy of the ion-electron system (eV)
  ---------------------------------------------------
  alpha Z        PSCENC =       156.23033799
  Ewald energy   TEWEN  =     20930.84606416
  -Hartree energ DENC   =    -26315.12346736
  -exchange      EXHF   =         0.00000000
  -V(xc)+E(xc)   XCENC  =       189.10036415
  PAW double counting   =      5714.58428705    -5666.75040797
  entropy T*S    EENTRO =        -0.00723908
  eigenvalues    EBANDS =      -874.56228678
  atomic energy  EATOM  =      5783.36633218
  Solvation  Ediel_sol  =         0.00000000
  ---------------------------------------------------
  free energy    TOTEN  =       -82.31601566 eV

  energy without entropy =      -82.30877658  energy(sigma->0) =      -82.31239612


--------------------------------------------------------------------------------------------------------




--------------------------------------- Iteration      1(  16)  ---------------------------------------


    POTLOK:  cpu time    0.0367: real time    0.0367
    SETDIJ:  cpu time    0.4407: real time    0.4407
     EDDAV:  cpu time    3.7840: real time    3.7841
       DOS:  cpu time    0.0009: real time    0.0009
    CHARGE:  cpu time    0.2736: real time    0.2736
    MIXING:  cpu time    0.0107: real time    0.0107
    --------------------------------------------
      LOOP:  cpu time    4.5466: real time    4.5466

 eigenvalue-minimisations  :  3696
 total energy-change (2. order) : 0.4671341E+01  (-0.5869282E+00)
 number of electron      71.9999999 magnetization 
 augmentation part       -1.0602345 magnetization 

 Broyden mixing:
  rms(total) = 0.27241E+01    rms(broyden)= 0.27240E+01
  rms(prec ) = 0.27921E+01
  weight for this iteration     100.00

 eigenvalues of (default mixing * dielectric matrix)
  average eigenvalue GAMMA=   0.5471
  2.1462  0.9972  0.9972  0.5399  0.3855  0.3855  0.0418  0.1066  0.1066  0.2713
  0.0407

 Free energy of the ion-electron system (eV)
  ---------------------------------------------------
  alpha Z        PSCENC =       156.23033799
  Ewald energy   TEWEN  =     20930.84606416
  -Hartree energ DENC   =    -26303.63954395
  -exchange      EXHF   =         0.00000000
  -V(xc)+E(xc)   XCENC  =       189.55922514
  PAW double counting   =      5716.19909142    -5666.00246774
  entropy T*S    EENTRO =        -0.01872693
  eigenvalues    EBANDS =      -884.18498699
  atomic energy  EATOM  =      5783.36633218
  Solvation  Ediel_sol  =         0.00000000
  ---------------------------------------------------
  free energy    TOTEN  =       -77.64467471 eV

  energy without entropy =      -77.62594778  energy(sigma->0) =      -77.63531124


--------------------------------------------------------------------------------------------------------




--------------------------------------- Iteration      1(  17)  ---------------------------------------


    POTLOK:  cpu time    0.0376: real time    0.0376
    SETDIJ:  cpu time    0.4417: real time    0.4417
     EDDAV:  cpu time    3.9208: real time    3.9211
       DOS:  cpu time    0.0008: real time    0.0008
    CHARGE:  cpu time    0.2759: real time    0.2759
    MIXING:  cpu time    0.0102: real time    0.0102
    --------------------------------------------
      LOOP:  cpu time    4.6871: real time    4.6873

 eigenvalue-minimisations  :  3872
 total energy-change (2. order) :-0.2797602E+00  (-0.6835494E-01)
 number of electron      71.9999999 magnetization 
 augmentation part       -1.1551061 magnetization 

 Broyden mixing:
  rms(total) = 0.26534E+01    rms(broyden)= 0.26534E+01
  rms(prec ) = 0.27258E+01
  weight for this iteration     100.00

 eigenvalues of (default mixing * dielectric matrix)
  average eigenvalue GAMMA=   0.5191
  2.1357  1.0005  1.0005  0.5441  0.3844  0.3844  0.2713  0.1066  0.1066  0.0418
  0.1270  0.1270

 Free energy of the ion-electron system (eV)
  ---------------------------------------------------
  alpha Z        PSCENC =       156.23033799
  Ewald energy   TEWEN  =     20930.84606416
  -Hartree energ DENC   =    -26304.19414635
  -exchange      EXHF   =         0.00000000
  -V(xc)+E(xc)   XCENC  =       189.55939742
  PAW double counting   =      5716.36279275    -5666.33534021
  entropy T*S    EENTRO =        -0.01891261
  eigenvalues    EBANDS =      -883.74096026
  atomic energy  EATOM  =      5783.36633218
  Solvation  Ediel_sol  =         0.00000000
  ---------------------------------------------------
  free energy    TOTEN  =       -77.92443493 eV

  energy without entropy =      -77.90552232  energy(sigma->0) =      -77.91497862


--------------------------------------------------------------------------------------------------------




--------------------------------------- Iteration      1(  18)  ---------------------------------------


    POTLOK:  cpu time    0.0375: real time    0.0375
    SETDIJ:  cpu time    0.4393: real time    0.4393
     EDDAV:  cpu time    4.6247: real time    4.6250
       DOS:  cpu time    0.0008: real time    0.0008
    CHARGE:  cpu time    0.2761: real time    0.2761
    MIXING:  cpu time    0.0105: real time    0.0105
    --------------------------------------------
      LOOP:  cpu time    5.3889: real time    5.3892

 eigenvalue-minimisations  :  4760
 total energy-change (2. order) :-0.2198466E+00  (-0.1450476E-01)
 number of electron      71.9999999 magnetization 
 augmentation part       -1.2408979 magnetization 

 Broyden mixing:
  rms(total) = 0.26957E+01    rms(broyden)= 0.26957E+01
  rms(prec ) = 0.27664E+01
  weight for this iteration     100.00

 eigenvalues of (default mixing * dielectric matrix)
  average eigenvalue GAMMA=   0.5013
  2.1412  1.0024  1.0024  0.5400  0.3847  0.3847  0.2714  0.0418  0.1066  0.1066
  0.2082  0.2082  0.1186

 Free energy of the ion-electron system (eV)
  ---------------------------------------------------
  alpha Z        PSCENC =       156.23033799
  Ewald energy   TEWEN  =     20930.84606416
  -Hartree energ DENC   =    -26305.95610151
  -exchange      EXHF   =         0.00000000
  -V(xc)+E(xc)   XCENC  =       189.56513045
  PAW double counting   =      5711.07026189    -5661.23162301
  entropy T*S    EENTRO =        -0.01823999
  eigenvalues    EBANDS =      -882.01644369
  atomic energy  EATOM  =      5783.36633218
  Solvation  Ediel_sol  =         0.00000000
  ---------------------------------------------------
  free energy    TOTEN  =       -78.14428153 eV

  energy without entropy =      -78.12604154  energy(sigma->0) =      -78.13516153


--------------------------------------------------------------------------------------------------------




--------------------------------------- Iteration      1(  19)  ---------------------------------------


    POTLOK:  cpu time    0.0376: real time    0.0376
    SETDIJ:  cpu time    0.4411: real time    0.4411
     EDDAV:  cpu time    4.0895: real time    4.0899
       DOS:  cpu time    0.0008: real time    0.0008
    CHARGE:  cpu time    0.2766: real time    0.2766
    MIXING:  cpu time    0.0102: real time    0.0101
    --------------------------------------------
      LOOP:  cpu time    4.8558: real time    4.8561

 eigenvalue-minimisations  :  4080
 total energy-change (2. order) : 0.4551865E-02  (-0.1926301E-02)
 number of electron      71.9999999 magnetization 
 augmentation part       -1.2528324 magnetization 

 Broyden mixing:
  rms(total) = 0.26939E+01    rms(broyden)= 0.26939E+01
  rms(prec ) = 0.27648E+01
  weight for this iteration     100.00

 eigenvalues of (default mixing * dielectric matrix)
  average eigenvalue GAMMA=   0.5508
  1.9819  0.9466  0.9466  0.5931  0.5931  0.6067  0.3777  0.3777  0.3811  0.3811
  0.0418  0.1066  0.1066  0.2710

 Free energy of the ion-electron system (eV)
  ---------------------------------------------------
  alpha Z        PSCENC =       156.23033799
  Ewald energy   TEWEN  =     20930.84606416
  -Hartree energ DENC   =    -26306.05451541
  -exchange      EXHF   =         0.00000000
  -V(xc)+E(xc)   XCENC  =       189.56890454
  PAW double counting   =      5710.95059260    -5661.10470414
  entropy T*S    EENTRO =        -0.01843325
  eigenvalues    EBANDS =      -881.92430834
  atomic energy  EATOM  =      5783.36633218
  Solvation  Ediel_sol  =         0.00000000
  ---------------------------------------------------
  free energy    TOTEN  =       -78.13972966 eV

  energy without entropy =      -78.12129641  energy(sigma->0) =      -78.13051304


--------------------------------------------------------------------------------------------------------




--------------------------------------- Iteration      1(  20)  ---------------------------------------


    POTLOK:  cpu time    0.0376: real time    0.0376
    SETDIJ:  cpu time    0.4411: real time    0.4411
     EDDAV:  cpu time    3.5887: real time    3.5889
       DOS:  cpu time    0.0009: real time    0.0009
    CHARGE:  cpu time    0.2773: real time    0.2773
    MIXING:  cpu time    0.0106: real time    0.0106
    --------------------------------------------
      LOOP:  cpu time    4.3561: real time    4.3564

 eigenvalue-minimisations  :  3456
 total energy-change (2. order) :-0.1477767E+01  (-0.1269005E+00)
 number of electron      71.9999999 magnetization 
 augmentation part       -1.2002388 magnetization 

 Broyden mixing:
  rms(total) = 0.30592E+01    rms(broyden)= 0.30592E+01
  rms(prec ) = 0.31250E+01
  weight for this iteration     100.00

 eigenvalues of (default mixing * dielectric matrix)
  average eigenvalue GAMMA=   0.5803
  2.0555  0.7044  0.9200  0.9200  0.7052  0.7052  0.6529  0.0418  0.1066  0.1066
  0.2711  0.3843  0.3843  0.3732  0.3732

 Free energy of the ion-electron system (eV)
  ---------------------------------------------------
  alpha Z        PSCENC =       156.23033799
  Ewald energy   TEWEN  =     20930.84606416
  -Hartree energ DENC   =    -26307.68921137
  -exchange      EXHF   =         0.00000000
  -V(xc)+E(xc)   XCENC  =       189.28365024
  PAW double counting   =      5710.61401726    -5660.76681096
  entropy T*S    EENTRO =        -0.00796627
  eigenvalues    EBANDS =      -881.49390947
  atomic energy  EATOM  =      5783.36633218
  Solvation  Ediel_sol  =         0.00000000
  ---------------------------------------------------
  free energy    TOTEN  =       -79.61749625 eV

  energy without entropy =      -79.60952998  energy(sigma->0) =      -79.61351311


--------------------------------------------------------------------------------------------------------




--------------------------------------- Iteration      1(  21)  ---------------------------------------


    POTLOK:  cpu time    0.0377: real time    0.0377
    SETDIJ:  cpu time    0.4392: real time    0.4392
     EDDAV:  cpu time    3.9173: real time    3.9174
       DOS:  cpu time    0.0009: real time    0.0009
    CHARGE:  cpu time    0.2762: real time    0.2762
    MIXING:  cpu time    0.0100: real time    0.0100
    --------------------------------------------
      LOOP:  cpu time    4.6813: real time    4.6815

 eigenvalue-minimisations  :  3864
 total energy-change (2. order) :-0.4584838E+00  (-0.1366743E-01)
 number of electron      71.9999999 magnetization 
 augmentation part       -1.2000722 magnetization 

 Broyden mixing:
  rms(total) = 0.31670E+01    rms(broyden)= 0.31669E+01
  rms(prec ) = 0.32380E+01
  weight for this iteration     100.00

 eigenvalues of (default mixing * dielectric matrix)
  average eigenvalue GAMMA=   0.7032
  2.3024  1.2596  1.3282  1.3282  0.8554  0.8554  0.6146  0.6146  0.4077  0.4077
  0.3757  0.3757  0.0418  0.1066  0.1066  0.2712

 Free energy of the ion-electron system (eV)
  ---------------------------------------------------
  alpha Z        PSCENC =       156.23033799
  Ewald energy   TEWEN  =     20930.84606416
  -Hartree energ DENC   =    -26309.61829111
  -exchange      EXHF   =         0.00000000
  -V(xc)+E(xc)   XCENC  =       189.38015521
  PAW double counting   =      5695.53435787    -5647.20837248
  entropy T*S    EENTRO =        -0.00982257
  eigenvalues    EBANDS =      -878.59674134
  atomic energy  EATOM  =      5783.36633218
  Solvation  Ediel_sol  =         0.00000000
  ---------------------------------------------------
  free energy    TOTEN  =       -80.07598009 eV

  energy without entropy =      -80.06615751  energy(sigma->0) =      -80.07106880


--------------------------------------------------------------------------------------------------------




--------------------------------------- Iteration      1(  22)  ---------------------------------------


    POTLOK:  cpu time    0.0365: real time    0.0365
    SETDIJ:  cpu time    0.4395: real time    0.4395
     EDDAV:  cpu time    3.9693: real time    3.9695
       DOS:  cpu time    0.0008: real time    0.0008
    CHARGE:  cpu time    0.2777: real time    0.2777
    MIXING:  cpu time    0.0101: real time    0.0101
    --------------------------------------------
      LOOP:  cpu time    4.7340: real time    4.7342

 eigenvalue-minimisations  :  3936
 total energy-change (2. order) :-0.4648419E+01  (-0.3019897E+00)
 number of electron      71.9999999 magnetization 
 augmentation part       -1.2019051 magnetization 

 Broyden mixing:
  rms(total) = 0.30987E+01    rms(broyden)= 0.30986E+01
  rms(prec ) = 0.31837E+01
  weight for this iteration     100.00

 eigenvalues of (default mixing * dielectric matrix)
  average eigenvalue GAMMA=   0.6562
  2.2996  1.1837  1.2658  1.2658  0.8528  0.8528  0.6176  0.6176  0.4060  0.4060
  0.3760  0.3760  0.0418  0.1066  0.1066  0.2712  0.1096

 Free energy of the ion-electron system (eV)
  ---------------------------------------------------
  alpha Z        PSCENC =       156.23033799
  Ewald energy   TEWEN  =     20930.84606416
  -Hartree energ DENC   =    -26320.89718500
  -exchange      EXHF   =         0.00000000
  -V(xc)+E(xc)   XCENC  =       189.70115734
  PAW double counting   =      5655.37264823    -5616.10458259
  entropy T*S    EENTRO =        -0.01178588
  eigenvalues    EBANDS =      -863.22738507
  atomic energy  EATOM  =      5783.36633218
  Solvation  Ediel_sol  =         0.00000000
  ---------------------------------------------------
  free energy    TOTEN  =       -84.72439863 eV

  energy without entropy =      -84.71261276  energy(sigma->0) =      -84.71850569


--------------------------------------------------------------------------------------------------------




--------------------------------------- Iteration      1(  23)  ---------------------------------------


    POTLOK:  cpu time    0.0364: real time    0.0364
    SETDIJ:  cpu time    0.4407: real time    0.4407
     EDDAV:  cpu time    4.0375: real time    4.0377
       DOS:  cpu time    0.0008: real time    0.0008
    CHARGE:  cpu time    0.2779: real time    0.2779
    MIXING:  cpu time    0.0102: real time    0.0102
    --------------------------------------------
      LOOP:  cpu time    4.8035: real time    4.8037

 eigenvalue-minimisations  :  4000
 total energy-change (2. order) : 0.7028010E+00  (-0.3118365E-01)
 number of electron      71.9999999 magnetization 
 augmentation part       -1.1786005 magnetization 

 Broyden mixing:
  rms(total) = 0.31146E+01    rms(broyden)= 0.31146E+01
  rms(prec ) = 0.32004E+01
  weight for this iteration     100.00

 eigenvalues of (default mixing * dielectric matrix)
  average eigenvalue GAMMA=   0.7375
  2.1553  1.7108  1.6371  1.6371  0.8015  0.8015  0.6160  0.6160  0.6133  0.6133
  0.0418  0.1066  0.1066  0.3950  0.3950  0.3783  0.3783  0.2712

 Free energy of the ion-electron system (eV)
  ---------------------------------------------------
  alpha Z        PSCENC =       156.23033799
  Ewald energy   TEWEN  =     20930.84606416
  -Hartree energ DENC   =    -26321.16837844
  -exchange      EXHF   =         0.00000000
  -V(xc)+E(xc)   XCENC  =       189.58762901
  PAW double counting   =      5671.10086085    -5629.15454105
  entropy T*S    EENTRO =        -0.01203754
  eigenvalues    EBANDS =      -864.81786476
  atomic energy  EATOM  =      5783.36633218
  Solvation  Ediel_sol  =         0.00000000
  ---------------------------------------------------
  free energy    TOTEN  =       -84.02159759 eV

  energy without entropy =      -84.00956005  energy(sigma->0) =      -84.01557882


--------------------------------------------------------------------------------------------------------




--------------------------------------- Iteration      1(  24)  ---------------------------------------


    POTLOK:  cpu time    0.0362: real time    0.0362
    SETDIJ:  cpu time    0.4349: real time    0.4349
     EDDAV:  cpu time    3.9175: real time    3.9176
       DOS:  cpu time    0.0009: real time    0.0009
    CHARGE:  cpu time    0.2761: real time    0.2761
    MIXING:  cpu time    0.0107: real time    0.0107
    --------------------------------------------
      LOOP:  cpu time    4.6762: real time    4.6764

 eigenvalue-minimisations  :  3864
 total energy-change (2. order) :-0.1195483E+01  (-0.1643324E+00)
 number of electron      71.9999999 magnetization 
 augmentation part       -1.0728119 magnetization 

 Broyden mixing:
  rms(total) = 0.31277E+01    rms(broyden)= 0.31277E+01
  rms(prec ) = 0.32161E+01
  weight for this iteration     100.00

 eigenvalues of (default mixing * dielectric matrix)
  average eigenvalue GAMMA=   0.7427
  1.9284  2.1649  1.6499  1.6499  0.8233  0.8233  0.7541  0.7541  0.6091  0.6091
  0.0418  0.1066  0.1066  0.4007  0.4007  0.3770  0.3770  0.2712  0.2636

 Free energy of the ion-electron system (eV)
  ---------------------------------------------------
  alpha Z        PSCENC =       156.23033799
  Ewald energy   TEWEN  =     20930.84606416
  -Hartree energ DENC   =    -26305.10566524
  -exchange      EXHF   =         0.00000000
  -V(xc)+E(xc)   XCENC  =       189.92688771
  PAW double counting   =      5624.77739822    -5592.23840397
  entropy T*S    EENTRO =        -0.00951111
  eigenvalues    EBANDS =      -873.01052097
  atomic energy  EATOM  =      5783.36633218
  Solvation  Ediel_sol  =         0.00000000
  ---------------------------------------------------
  free energy    TOTEN  =       -85.21708102 eV

  energy without entropy =      -85.20756991  energy(sigma->0) =      -85.21232547


--------------------------------------------------------------------------------------------------------




--------------------------------------- Iteration      1(  25)  ---------------------------------------


    POTLOK:  cpu time    0.0364: real time    0.0364
    SETDIJ:  cpu time    0.4313: real time    0.4313
     EDDAV:  cpu time    3.9071: real time    3.9073
       DOS:  cpu time    0.0006: real time    0.0006
    CHARGE:  cpu time    0.2782: real time    0.2782
    MIXING:  cpu time    0.0105: real time    0.0105
    --------------------------------------------
      LOOP:  cpu time    4.6641: real time    4.6643

 eigenvalue-minimisations  :  3856
 total energy-change (2. order) : 0.3255247E+00  (-0.3761899E-01)
 number of electron      71.9999999 magnetization 
 augmentation part       -1.0482220 magnetization 

 Broyden mixing:
  rms(total) = 0.31454E+01    rms(broyden)= 0.31454E+01
  rms(prec ) = 0.32331E+01
  weight for this iteration     100.00

 eigenvalues of (default mixing * dielectric matrix)
  average eigenvalue GAMMA=   0.7512
  2.1842  1.8078  1.8078  1.4865  0.7794  0.8960  0.8960  0.7412  0.7412  0.5938
  0.5938  0.0418  0.1066  0.1066  0.4026  0.4026  0.3760  0.3760  0.2712  0.4120

 Free energy of the ion-electron system (eV)
  ---------------------------------------------------
  alpha Z        PSCENC =       156.23033799
  Ewald energy   TEWEN  =     20930.84606416
  -Hartree energ DENC   =    -26297.79647654
  -exchange      EXHF   =         0.00000000
  -V(xc)+E(xc)   XCENC  =       189.92371189
  PAW double counting   =      5643.91589733    -5612.75008429
  entropy T*S    EENTRO =        -0.01043139
  eigenvalues    EBANDS =      -878.61690761
  atomic energy  EATOM  =      5783.36633218
  Solvation  Ediel_sol  =         0.00000000
[...]
  eigenvalues    EBANDS =      -832.32506571
  atomic energy  EATOM  =      5783.36633218
  Solvation  Ediel_sol  =         0.00000000
  ---------------------------------------------------
  free energy    TOTEN  =       -71.75189354 eV

  energy without entropy =      -71.73150123  energy(sigma->0) =      -71.74169738


--------------------------------------------------------------------------------------------------------




--------------------------------------- Iteration      2(  37)  ---------------------------------------


    POTLOK:  cpu time    0.0370: real time    0.0370
    SETDIJ:  cpu time    0.4415: real time    0.4415
     EDDAV:  cpu time    3.9868: real time    3.9868
       DOS:  cpu time    0.0008: real time    0.0008
    CHARGE:  cpu time    0.2852: real time    0.2851
    MIXING:  cpu time    0.0123: real time    0.0123
    --------------------------------------------
      LOOP:  cpu time    4.7635: real time    4.7635

 eigenvalue-minimisations  :  3944
 total energy-change (2. order) :-0.1946134E+00  (-0.3452519E+00)
 number of electron      71.9999999 magnetization 
 augmentation part        0.9065975 magnetization 

 Broyden mixing:
  rms(total) = 0.25530E+01    rms(broyden)= 0.25525E+01
  rms(prec ) = 0.33150E+01
  weight for this iteration     100.00

 eigenvalues of (default mixing * dielectric matrix)
  average eigenvalue GAMMA=   0.4785
  2.6909  1.3391  1.3391  0.6648  0.7652  0.7652  0.6385  0.6385  0.7543  0.7543
  0.6935  0.6935  0.5159  0.5159  0.3525  0.3525  0.3897  0.3897  0.3538  0.2721
  0.2293  0.2293  0.2490  0.2490  0.2282  0.2282  0.1076  0.1076  0.0804  0.1694
  0.0517  0.0517  0.1291  0.0330  0.1024  0.1024

 Free energy of the ion-electron system (eV)
  ---------------------------------------------------
  alpha Z        PSCENC =       156.23033799
  Ewald energy   TEWEN  =     20861.13367286
  -Hartree energ DENC   =    -26291.25263551
  -exchange      EXHF   =         0.00000000
  -V(xc)+E(xc)   XCENC  =       188.39286624
  PAW double counting   =      5625.45084543    -5562.42348211
  entropy T*S    EENTRO =        -0.03392296
  eigenvalues    EBANDS =      -832.81052101
  atomic energy  EATOM  =      5783.36633218
  Solvation  Ediel_sol  =         0.00000000
  ---------------------------------------------------
  free energy    TOTEN  =       -71.94650689 eV

  energy without entropy =      -71.91258393  energy(sigma->0) =      -71.92954541


--------------------------------------------------------------------------------------------------------




--------------------------------------- Iteration      2(  38)  ---------------------------------------


    POTLOK:  cpu time    0.0360: real time    0.0360
    SETDIJ:  cpu time    0.4418: real time    0.4418
     EDDAV:  cpu time    3.9484: real time    3.9485
       DOS:  cpu time    0.0007: real time    0.0007
    CHARGE:  cpu time    0.2764: real time    0.2764
    MIXING:  cpu time    0.0123: real time    0.0123
    --------------------------------------------
      LOOP:  cpu time    4.7156: real time    4.7157

 eigenvalue-minimisations  :  3904
 total energy-change (2. order) : 0.1584226E-01  (-0.1429874E+01)
 number of electron      71.9999999 magnetization 
 augmentation part       -1.0997007 magnetization 

 Broyden mixing:
  rms(total) = 0.13723E+01    rms(broyden)= 0.13715E+01
  rms(prec ) = 0.16041E+01
  weight for this iteration     100.00

 eigenvalues of (default mixing * dielectric matrix)
  average eigenvalue GAMMA=   0.4891
  2.1252  1.5932  1.5932  0.9354  0.9354  0.6657  0.7756  0.7756  0.6407  0.6407
  0.6710  0.6710  0.5373  0.5373  0.4213  0.4213  0.4247  0.4247  0.3563  0.3563
  0.2736  0.2262  0.2262  0.2290  0.2290  0.2377  0.2377  0.1076  0.1076  0.0804
  0.1695  0.0517  0.0517  0.1291  0.0330  0.1024  0.1024

 Free energy of the ion-electron system (eV)
  ---------------------------------------------------
  alpha Z        PSCENC =       156.23033799
  Ewald energy   TEWEN  =     20861.13367286
  -Hartree energ DENC   =    -26288.39385554
  -exchange      EXHF   =         0.00000000
  -V(xc)+E(xc)   XCENC  =       188.33160034
  PAW double counting   =      5613.10520196    -5551.16917552
  entropy T*S    EENTRO =        -0.01450327
  eigenvalues    EBANDS =      -834.52027563
  atomic energy  EATOM  =      5783.36633218
  Solvation  Ediel_sol  =         0.00000000
  ---------------------------------------------------
  free energy    TOTEN  =       -71.93066464 eV

  energy without entropy =      -71.91616136  energy(sigma->0) =      -71.92341300


--------------------------------------------------------------------------------------------------------




--------------------------------------- Iteration      2(  39)  ---------------------------------------


    POTLOK:  cpu time    0.0361: real time    0.0361
    SETDIJ:  cpu time    0.4424: real time    0.4424
     EDDAV:  cpu time    3.9195: real time    3.9196
       DOS:  cpu time    0.0008: real time    0.0008
    CHARGE:  cpu time    0.2785: real time    0.2785
    MIXING:  cpu time    0.0131: real time    0.0131
    --------------------------------------------
      LOOP:  cpu time    4.6903: real time    4.6904

 eigenvalue-minimisations  :  3864
 total energy-change (2. order) : 0.1760196E+00  (-0.1614939E-01)
 number of electron      71.9999999 magnetization 
 augmentation part       -1.1478399 magnetization 

 Broyden mixing:
  rms(total) = 0.13878E+01    rms(broyden)= 0.13878E+01
  rms(prec ) = 0.16235E+01
  weight for this iteration     100.00

 eigenvalues of (default mixing * dielectric matrix)
  average eigenvalue GAMMA=   0.5071
  2.4128  1.6776  1.6776  0.9636  0.9636  0.6660  0.7859  0.7859  0.6375  0.6375
  0.6707  0.6707  0.5980  0.5980  0.5671  0.3561  0.3561  0.4154  0.4154  0.4022
  0.4022  0.2734  0.2269  0.2269  0.2454  0.2454  0.2289  0.2289  0.1076  0.1076
  0.0804  0.1695  0.0517  0.0517  0.1291  0.0330  0.1024  0.1024

 Free energy of the ion-electron system (eV)
  ---------------------------------------------------
  alpha Z        PSCENC =       156.23033799
  Ewald energy   TEWEN  =     20861.13367286
  -Hartree energ DENC   =    -26290.16606756
  -exchange      EXHF   =         0.00000000
  -V(xc)+E(xc)   XCENC  =       188.37814862
  PAW double counting   =      5614.18090203    -5552.49418407
  entropy T*S    EENTRO =        -0.01385152
  eigenvalues    EBANDS =      -832.36993559
  atomic energy  EATOM  =      5783.36633218
  Solvation  Ediel_sol  =         0.00000000
  ---------------------------------------------------
  free energy    TOTEN  =       -71.75464507 eV

  energy without entropy =      -71.74079355  energy(sigma->0) =      -71.74771931


--------------------------------------------------------------------------------------------------------




--------------------------------------- Iteration      2(  40)  ---------------------------------------


    POTLOK:  cpu time    0.0360: real time    0.0360
    SETDIJ:  cpu time    0.4415: real time    0.4415
     EDDAV:  cpu time    3.9191: real time    3.9191
       DOS:  cpu time    0.0008: real time    0.0008
    CHARGE:  cpu time    0.2754: real time    0.2756
    MIXING:  cpu time    0.0126: real time    0.0126
    --------------------------------------------
      LOOP:  cpu time    4.6854: real time    4.6856

 eigenvalue-minimisations  :  3856
 total energy-change (2. order) : 0.3821135E+00  (-0.1903972E-01)
 number of electron      71.9999999 magnetization 
 augmentation part       -1.0902230 magnetization 

 Broyden mixing:
  rms(total) = 0.12711E+01    rms(broyden)= 0.12711E+01
  rms(prec ) = 0.14395E+01
  weight for this iteration     100.00

 eigenvalues of (default mixing * dielectric matrix)
  average eigenvalue GAMMA=   0.4972
  1.9879  1.4858  1.4858  1.1796  1.1796  0.6661  0.7915  0.7915  0.6359  0.6359
  0.6663  0.6663  0.6111  0.6111  0.5075  0.5075  0.3550  0.3550  0.4093  0.4093
  0.4201  0.4201  0.2736  0.2268  0.2268  0.2453  0.2453  0.2289  0.2289  0.1076
  0.1076  0.0804  0.1695  0.0517  0.0517  0.0330  0.1291  0.1024  0.1024

 Free energy of the ion-electron system (eV)
  ---------------------------------------------------
  alpha Z        PSCENC =       156.23033799
  Ewald energy   TEWEN  =     20861.13367286
  -Hartree energ DENC   =    -26291.47722132
  -exchange      EXHF   =         0.00000000
  -V(xc)+E(xc)   XCENC  =       188.47487890
  PAW double counting   =      5611.91579440    -5550.22764048
  entropy T*S    EENTRO =        -0.01727542
  eigenvalues    EBANDS =      -830.77141066
  atomic energy  EATOM  =      5783.36633218
  Solvation  Ediel_sol  =         0.00000000
  ---------------------------------------------------
  free energy    TOTEN  =       -71.37253155 eV

  energy without entropy =      -71.35525612  energy(sigma->0) =      -71.36389383


--------------------------------------------------------------------------------------------------------




--------------------------------------- Iteration      2(  41)  ---------------------------------------


    POTLOK:  cpu time    0.0360: real time    0.0360
    SETDIJ:  cpu time    0.4407: real time    0.4407
     EDDAV:  cpu time    3.9922: real time    3.9923
       DOS:  cpu time    0.0008: real time    0.0008
    CHARGE:  cpu time    0.2742: real time    0.2742
    MIXING:  cpu time    0.0130: real time    0.0130
    --------------------------------------------
      LOOP:  cpu time    4.7570: real time    4.7570

 eigenvalue-minimisations  :  3960
 total energy-change (2. order) :-0.1182110E+00  (-0.2785544E-02)
 number of electron      71.9999999 magnetization 
 augmentation part       -1.1434680 magnetization 

 Broyden mixing:
  rms(total) = 0.13301E+01    rms(broyden)= 0.13301E+01
  rms(prec ) = 0.15409E+01
  weight for this iteration     100.00

 eigenvalues of (default mixing * dielectric matrix)
  average eigenvalue GAMMA=   0.5007
  2.0754  1.4912  1.4912  1.1394  1.1394  0.6662  0.7991  0.7991  0.6343  0.6343
  0.7011  0.7011  0.6655  0.6655  0.5159  0.5159  0.5014  0.4205  0.4205  0.3555
  0.3555  0.3656  0.3656  0.2734  0.2268  0.2268  0.2441  0.2441  0.2289  0.2289
  0.1076  0.1076  0.0804  0.1695  0.0517  0.0517  0.1291  0.0330  0.1024  0.1024

 Free energy of the ion-electron system (eV)
  ---------------------------------------------------
  alpha Z        PSCENC =       156.23033799
  Ewald energy   TEWEN  =     20861.13367286
  -Hartree energ DENC   =    -26289.58588828
  -exchange      EXHF   =         0.00000000
  -V(xc)+E(xc)   XCENC  =       188.44494101
  PAW double counting   =      5609.65805491    -5548.10900887
  entropy T*S    EENTRO =        -0.01588963
  eigenvalues    EBANDS =      -832.61329469
  atomic energy  EATOM  =      5783.36633218
  Solvation  Ediel_sol  =         0.00000000
  ---------------------------------------------------
  free energy    TOTEN  =       -71.49074253 eV

  energy without entropy =      -71.47485290  energy(sigma->0) =      -71.48279772


--------------------------------------------------------------------------------------------------------




--------------------------------------- Iteration      2(  42)  ---------------------------------------


    POTLOK:  cpu time    0.0359: real time    0.0359
    SETDIJ:  cpu time    0.4382: real time    0.4382
     EDDAV:  cpu time    3.8528: real time    3.8528
       DOS:  cpu time    0.0008: real time    0.0008
    CHARGE:  cpu time    0.2745: real time    0.2745
    MIXING:  cpu time    0.0133: real time    0.0133
    --------------------------------------------
      LOOP:  cpu time    4.6155: real time    4.6155

 eigenvalue-minimisations  :  3768
 total energy-change (2. order) :-0.5846293E-01  (-0.5413128E-02)
 number of electron      71.9999999 magnetization 
 augmentation part       -1.0844312 magnetization 

 Broyden mixing:
  rms(total) = 0.12856E+01    rms(broyden)= 0.12856E+01
  rms(prec ) = 0.14628E+01
  weight for this iteration     100.00

 eigenvalues of (default mixing * dielectric matrix)
  average eigenvalue GAMMA=   0.4941
  2.0325  1.4799  1.4799  1.1323  1.1323  0.6662  0.8034  0.8034  0.7247  0.7247
  0.6338  0.6338  0.6712  0.6712  0.4882  0.4882  0.4693  0.4226  0.4226  0.3561
  0.3561  0.3749  0.3380  0.3380  0.2737  0.2468  0.2468  0.2289  0.2289  0.2269
  0.2269  0.1076  0.1076  0.0804  0.0330  0.0517  0.0517  0.1695  0.1291  0.1024
  0.1024

 Free energy of the ion-electron system (eV)
  ---------------------------------------------------
  alpha Z        PSCENC =       156.23033799
  Ewald energy   TEWEN  =     20861.13367286
  -Hartree energ DENC   =    -26289.94773268
  -exchange      EXHF   =         0.00000000
  -V(xc)+E(xc)   XCENC  =       188.45265388
  PAW double counting   =      5608.24043666    -5546.67398983
  entropy T*S    EENTRO =        -0.01760924
  eigenvalues    EBANDS =      -832.33330728
  atomic energy  EATOM  =      5783.36633218
  Solvation  Ediel_sol  =         0.00000000
  ---------------------------------------------------
  free energy    TOTEN  =       -71.54920547 eV

  energy without entropy =      -71.53159622  energy(sigma->0) =      -71.54040085


--------------------------------------------------------------------------------------------------------




--------------------------------------- Iteration      2(  43)  ---------------------------------------


    POTLOK:  cpu time    0.0360: real time    0.0360
    SETDIJ:  cpu time    0.4388: real time    0.4388
     EDDAV:  cpu time    3.5452: real time    3.5452
       DOS:  cpu time    0.0008: real time    0.0008
    CHARGE:  cpu time    0.2752: real time    0.2752
    MIXING:  cpu time    0.0135: real time    0.0135
    --------------------------------------------
      LOOP:  cpu time    4.3095: real time    4.3095

 eigenvalue-minimisations  :  3408
 total energy-change (2. order) :-0.2710082E+00  (-0.1183511E-01)
 number of electron      71.9999999 magnetization 
 augmentation part       -1.0838038 magnetization 

 Broyden mixing:
  rms(total) = 0.12827E+01    rms(broyden)= 0.12827E+01
  rms(prec ) = 0.14582E+01
  weight for this iteration     100.00

 eigenvalues of (default mixing * dielectric matrix)
  average eigenvalue GAMMA=   0.4957
  2.0345  1.4615  1.4615  1.1267  1.1267  0.6662  0.8150  0.8150  0.6324  0.6324
  0.6878  0.6878  0.6488  0.6488  0.4774  0.4774  0.5091  0.5091  0.4967  0.4171
  0.4171  0.3552  0.3552  0.3747  0.3747  0.2735  0.2268  0.2268  0.2447  0.2447
  0.2289  0.2289  0.1076  0.1076  0.0804  0.1695  0.0517  0.0517  0.0330  0.1291
  0.1024  0.1024

 Free energy of the ion-electron system (eV)
  ---------------------------------------------------
  alpha Z        PSCENC =       156.23033799
  Ewald energy   TEWEN  =     20861.13367286
  -Hartree energ DENC   =    -26290.24655491
  -exchange      EXHF   =         0.00000000
  -V(xc)+E(xc)   XCENC  =       188.44017470
  PAW double counting   =      5607.08006937    -5545.79302429
  entropy T*S    EENTRO =        -0.01830041
  eigenvalues    EBANDS =      -832.01292114
  atomic energy  EATOM  =      5783.36633218
  Solvation  Ediel_sol  =         0.00000000
  ---------------------------------------------------
  free energy    TOTEN  =       -71.82021365 eV

  energy without entropy =      -71.80191324  energy(sigma->0) =      -71.81106345


--------------------------------------------------------------------------------------------------------




--------------------------------------- Iteration      2(  44)  ---------------------------------------


    POTLOK:  cpu time    0.0359: real time    0.0359
    SETDIJ:  cpu time    0.4411: real time    0.4411
     EDDAV:  cpu time    3.9144: real time    3.9144
       DOS:  cpu time    0.0008: real time    0.0008
    CHARGE:  cpu time    0.2722: real time    0.2722
    MIXING:  cpu time    0.0139: real time    0.0139
    --------------------------------------------
      LOOP:  cpu time    4.6782: real time    4.6782

 eigenvalue-minimisations  :  3848
 total energy-change (2. order) :-0.2032611E+00  (-0.5007892E-02)
 number of electron      71.9999999 magnetization 
 augmentation part       -1.0640022 magnetization 

 Broyden mixing:
  rms(total) = 0.12919E+01    rms(broyden)= 0.12919E+01
  rms(prec ) = 0.14666E+01
  weight for this iteration     100.00

 eigenvalues of (default mixing * dielectric matrix)
  average eigenvalue GAMMA=   0.5123
  2.0444  1.4179  1.4179  1.1356  1.1356  0.9304  0.9304  0.6663  0.7790  0.7790
  0.6375  0.6375  0.6685  0.6685  0.6448  0.6448  0.5262  0.5262  0.3556  0.3556
  0.4590  0.4235  0.4235  0.4201  0.3954  0.3954  0.2735  0.2268  0.2268  0.2452
  0.2452  0.2289  0.2289  0.1076  0.1076  0.0804  0.1695  0.0517  0.0517  0.1291
  0.0330  0.1024  0.1024

 Free energy of the ion-electron system (eV)
  ---------------------------------------------------
  alpha Z        PSCENC =       156.23033799
  Ewald energy   TEWEN  =     20861.13367286
  -Hartree energ DENC   =    -26291.03630418
  -exchange      EXHF   =         0.00000000
  -V(xc)+E(xc)   XCENC  =       188.44373834
  PAW double counting   =      5607.35060302    -5546.32206178
  entropy T*S    EENTRO =        -0.01884828
  eigenvalues    EBANDS =      -831.17094487
  atomic energy  EATOM  =      5783.36633218
  Solvation  Ediel_sol  =         0.00000000
  ---------------------------------------------------
  free energy    TOTEN  =       -72.02347472 eV

  energy without entropy =      -72.00462644  energy(sigma->0) =      -72.01405058


--------------------------------------------------------------------------------------------------------




--------------------------------------- Iteration      2(  45)  ---------------------------------------


    POTLOK:  cpu time    0.0358: real time    0.0359
    SETDIJ:  cpu time    0.4395: real time    0.4394
     EDDAV:  cpu time    3.5929: real time    3.5929
       DOS:  cpu time    0.0008: real time    0.0008
    CHARGE:  cpu time    0.2732: real time    0.2732
    MIXING:  cpu time    0.0137: real time    0.0137
    --------------------------------------------
      LOOP:  cpu time    4.3559: real time    4.3558

 eigenvalue-minimisations  :  3440
 total energy-change (2. order) :-0.4531078E+00  (-0.1344921E-01)
 number of electron      71.9999999 magnetization 
 augmentation part       -1.0901631 magnetization 

 Broyden mixing:
  rms(total) = 0.13231E+01    rms(broyden)= 0.13231E+01
  rms(prec ) = 0.15065E+01
  weight for this iteration     100.00

 eigenvalues of (default mixing * dielectric matrix)
  average eigenvalue GAMMA=   0.5536
  2.0461  1.5488  1.5488  1.4814  1.4814  1.1441  1.1441  0.6663  0.7871  0.7871
  0.6359  0.6359  0.6888  0.6888  0.6990  0.6990  0.5944  0.5944  0.5105  0.5105
  0.5114  0.3557  0.3557  0.4122  0.4122  0.4051  0.4051  0.2735  0.2268  0.2268
  0.2451  0.2451  0.2289  0.2289  0.1076  0.1076  0.0804  0.0330  0.0517  0.0517
  0.1695  0.1291  0.1024  0.1024

 Free energy of the ion-electron system (eV)
  ---------------------------------------------------
  alpha Z        PSCENC =       156.23033799
  Ewald energy   TEWEN  =     20861.13367286
  -Hartree energ DENC   =    -26294.06650103
  -exchange      EXHF   =         0.00000000
  -V(xc)+E(xc)   XCENC  =       188.42841566
  PAW double counting   =      5612.96704666    -5552.42776017
  entropy T*S    EENTRO =        -0.01933130
  eigenvalues    EBANDS =      -828.08879532
  atomic energy  EATOM  =      5783.36633218
  Solvation  Ediel_sol  =         0.00000000
  ---------------------------------------------------
  free energy    TOTEN  =       -72.47658247 eV

  energy without entropy =      -72.45725117  energy(sigma->0) =      -72.46691682


--------------------------------------------------------------------------------------------------------




--------------------------------------- Iteration      2(  46)  ---------------------------------------


    POTLOK:  cpu time    0.0358: real time    0.0358
    SETDIJ:  cpu time    0.4404: real time    0.4404
