 running on   32 total cores
 distrk:  each k-point on   32 cores,    1 groups
 distr:  one band on    4 cores,    8 groups
 vasp.6.2.1 16May21 (build Feb 21 2024 21:23:56) complex                        
  
 POSCAR found type information on POSCAR CeO 
 POSCAR found :  2 types and       9 ions
 scaLAPACK will be used
 LDA part: xc-table for Pade appr. of Perdew
 POSCAR, INCAR and KPOINTS ok, starting setup
 FFT: planning ...
 WAVECAR not read
 WARNING: random wavefunctions but no delay for mixing, default for NELMDL
 entering main loop
       N       E                     dE             d eps       ncg     rms          rms(c)
DAV:   1     0.107271402466E+04    0.10727E+04   -0.30208E+04  2400   0.153E+03
DAV:   2     0.320134492300E+03   -0.75258E+03   -0.67069E+03  2984   0.369E+02
DAV:   3    -0.416581477362E+02   -0.36179E+03   -0.34961E+03  3440   0.237E+02
DAV:   4    -0.898248834017E+02   -0.48167E+02   -0.46995E+02  3504   0.100E+02
DAV:   5    -0.920496697518E+02   -0.22248E+01   -0.22222E+01  4184   0.244E+01    0.706E+01
DAV:   6    -0.175268929861E+03   -0.83219E+02   -0.97229E+02  4000   0.771E+01    0.143E+02
DAV:   7    -0.865517714951E+02    0.88717E+02   -0.21352E+03  4112   0.215E+02    0.153E+02
DAV:   8    -0.103144317655E+03   -0.16593E+02   -0.26604E+02  3808   0.772E+01    0.880E+01
DAV:   9    -0.109900508361E+03   -0.67562E+01   -0.14411E+03  4000   0.182E+02    0.805E+01
DAV:  10    -0.105037303856E+03    0.48632E+01   -0.95953E+02  4320   0.111E+02    0.872E+01
DAV:  11    -0.963925148425E+02    0.86448E+01   -0.27701E+02  3616   0.789E+01    0.619E+01
DAV:  12    -0.105503290022E+03   -0.91108E+01   -0.92195E+01  3952   0.277E+01    0.412E+01
DAV:  13    -0.959284647350E+02    0.95748E+01   -0.37992E+01  4256   0.160E+01    0.378E+01
DAV:  14    -0.893885293052E+02    0.65399E+01   -0.76731E+00  3968   0.134E+01    0.385E+01
DAV:  15    -0.823160156630E+02    0.70725E+01   -0.94135E+00  3880   0.134E+01    0.340E+01
DAV:  16    -0.776446747094E+02    0.46713E+01   -0.58693E+00  3696   0.138E+01    0.272E+01
DAV:  17    -0.779244349284E+02   -0.27976E+00   -0.68355E-01  3872   0.452E+00    0.265E+01
DAV:  18    -0.781442815274E+02   -0.21985E+00   -0.14505E-01  4760   0.205E+00    0.270E+01
DAV:  19    -0.781397296619E+02    0.45519E-02   -0.19263E-02  4080   0.708E-01    0.269E+01
DAV:  20    -0.796174962479E+02   -0.14778E+01   -0.12690E+00  3456   0.495E+00    0.306E+01
DAV:  21    -0.800759800863E+02   -0.45848E+00   -0.13667E-01  3864   0.224E+00    0.317E+01
DAV:  22    -0.847243986323E+02   -0.46484E+01   -0.30199E+00  3936   0.118E+01    0.310E+01
DAV:  23    -0.840215975908E+02    0.70280E+00   -0.31184E-01  4000   0.368E+00    0.311E+01
DAV:  24    -0.852170810204E+02   -0.11955E+01   -0.16433E+00  3864   0.662E+00    0.313E+01
DAV:  25    -0.848915562794E+02    0.32552E+00   -0.37619E-01  3856   0.351E+00    0.315E+01
DAV:  26    -0.850630738427E+02   -0.17152E+00   -0.52863E-02  4440   0.129E+00    0.312E+01
DAV:  27    -0.866139310697E+02   -0.15509E+01   -0.27276E+00  3840   0.833E+00    0.379E+01
DAV:  28    -0.849730946680E+02    0.16408E+01   -0.65553E-01  4240   0.512E+00    0.343E+01
DAV:  29    -0.760944699283E+02    0.88786E+01   -0.15795E+01  3704   0.210E+01    0.208E+01
DAV:  30    -0.737685405946E+02    0.23259E+01   -0.75199E+00  3896   0.152E+01    0.155E+01
DAV:  31    -0.738605367388E+02   -0.91996E-01   -0.11810E+00  4112   0.589E+00    0.159E+01
DAV:  32    -0.733142711845E+02    0.54627E+00   -0.44409E-01  4040   0.392E+00    0.150E+01
DAV:  33    -0.728402266320E+02    0.47404E+00   -0.44239E+00  3784   0.923E+00    0.157E+01
DAV:  34    -0.726586904070E+02    0.18154E+00   -0.71644E-01  3840   0.372E+00    0.145E+01
DAV:  35    -0.722935273566E+02    0.36516E+00   -0.57888E-01  3984   0.356E+00    0.131E+01
DAV:  36    -0.720204061872E+02    0.27312E+00   -0.20629E+00  3712   0.593E+00    0.158E+01
DAV:  37    -0.718979999375E+02    0.12241E+00   -0.25357E+00  4568   0.369E+00    0.120E+01
DAV:  38    -0.716126609629E+02    0.28534E+00   -0.15692E+00  3616   0.640E+00    0.117E+01
DAV:  39    -0.714611618527E+02    0.15150E+00   -0.78056E-01  4104   0.385E+00    0.984E+00
DAV:  40    -0.716776520238E+02   -0.21649E+00   -0.11313E+00  3424   0.434E+00    0.977E+00
DAV:  41    -0.714114062714E+02    0.26625E+00   -0.52114E-01  4000   0.372E+00    0.765E+00
DAV:  42    -0.713616270414E+02    0.49779E-01   -0.49668E-01  3880   0.307E+00    0.789E+00
DAV:  43    -0.712530177841E+02    0.10861E+00   -0.15289E-01  4376   0.187E+00    0.778E+00
DAV:  44    -0.711786019555E+02    0.74416E-01   -0.25307E-01  3824   0.209E+00    0.806E+00
DAV:  45    -0.711888893099E+02   -0.10287E-01   -0.16420E-02  4096   0.615E-01    0.794E+00
DAV:  46    -0.712147548203E+02   -0.25866E-01   -0.36141E-02  4144   0.989E-01    0.798E+00
DAV:  47    -0.711387860295E+02    0.75969E-01   -0.34122E-01  3752   0.215E+00    0.877E+00
DAV:  48    -0.711626544768E+02   -0.23868E-01   -0.60896E-02  3584   0.114E+00    0.817E+00
DAV:  49    -0.711582552150E+02    0.43993E-02   -0.17655E-02  4152   0.389E-01    0.781E+00
DAV:  50    -0.712555154177E+02   -0.97260E-01   -0.28843E-01  3560   0.211E+00    0.729E+00
DAV:  51    -0.716723167647E+02   -0.41680E+00   -0.91975E+00  3720   0.138E+01    0.217E+01
DAV:  52    -0.716558625891E+02    0.16454E-01   -0.27477E-01  3544   0.317E+00    0.215E+01
DAV:  53    -0.715329128325E+02    0.12295E+00   -0.10761E-01  4288   0.161E+00    0.200E+01
DAV:  54    -0.715245815930E+02    0.83312E-02   -0.13233E-01  3768   0.169E+00    0.190E+01
DAV:  55    -0.715051931634E+02    0.19388E-01   -0.91676E-03  3976   0.503E-01    0.188E+01
DAV:  56    -0.721128624227E+02   -0.60767E+00   -0.19097E+00  3880   0.572E+00    0.231E+01
DAV:  57    -0.719341637568E+02    0.17870E+00   -0.15611E-01  3584   0.223E+00    0.221E+01
DAV:  58    -0.718411059551E+02    0.93058E-01   -0.11803E-01  4120   0.168E+00    0.221E+01
DAV:  59    -0.719102474882E+02   -0.69142E-01   -0.13418E-01  3568   0.137E+00    0.222E+01
DAV:  60    -0.717677458600E+02    0.14250E+00   -0.13163E-01  3808   0.135E+00    0.208E+01
DAV:  61    -0.737810547582E+02   -0.20133E+01   -0.23253E+01  3704   0.369E+01    0.196E+01
DAV:  62    -0.755305925949E+02   -0.17495E+01   -0.10184E+01  4000   0.182E+01    0.200E+01
DAV:  63    -0.760762824567E+02   -0.54569E+00   -0.31566E+00  4128   0.639E+00    0.234E+01
DAV:  64    -0.774570075540E+02   -0.13807E+01   -0.34117E+00  4224   0.624E+00    0.294E+01
DAV:  65    -0.777786535486E+02   -0.32165E+00   -0.45488E+00  4296   0.296E+00    0.326E+01
DAV:  66    -0.801312179909E+02   -0.23526E+01   -0.24121E+01  3744   0.138E+01    0.548E+01
DAV:  67    -0.800556855342E+02    0.75532E-01   -0.91052E+00  3464   0.771E+00    0.571E+01
DAV:  68    -0.791917391549E+02    0.86395E+00   -0.42094E+00  3896   0.518E+00    0.513E+01
DAV:  69    -0.791352473892E+02    0.56492E-01   -0.10545E+01  3552   0.552E+00    0.517E+01
DAV:  70    -0.780842426270E+02    0.10510E+01   -0.83948E+00  3400   0.590E+00    0.477E+01
DAV:  71    -0.746936390142E+02    0.33906E+01   -0.20536E+01  3584   0.164E+01    0.304E+01
DAV:  72    -0.723326852050E+02    0.23610E+01   -0.20929E+01  3984   0.155E+01    0.164E+01
DAV:  73    -0.717804770658E+02    0.55221E+00   -0.54936E+00  4144   0.901E+00    0.125E+01
DAV:  74    -0.761631696949E+02   -0.43827E+01   -0.11315E+01  3976   0.111E+01    0.524E+01
DAV:  75    -0.760918330839E+02    0.71337E-01   -0.18089E+00  4232   0.415E+00    0.524E+01
DAV:  76    -0.752256400783E+02    0.86619E+00   -0.16184E+00  3984   0.442E+00    0.483E+01
DAV:  77    -0.739595457060E+02    0.12661E+01   -0.20840E+00  4080   0.440E+00    0.383E+01
DAV:  78    -0.722111786934E+02    0.17484E+01   -0.74202E+00  4016   0.767E+00    0.168E+01
DAV:  79    -0.720529499757E+02    0.15823E+00   -0.96071E-01  4240   0.398E+00    0.145E+01
DAV:  80    -0.722455213799E+02   -0.19257E+00   -0.27799E-01  3920   0.248E+00    0.159E+01
DAV:  81    -0.720428639865E+02    0.20266E+00   -0.23707E+00  3896   0.377E+00    0.158E+01
DAV:  82    -0.720982574847E+02   -0.55393E-01   -0.80748E-01  3792   0.432E+00    0.162E+01
DAV:  83    -0.722389689136E+02   -0.14071E+00   -0.13777E-01  4160   0.178E+00    0.172E+01
DAV:  84    -0.723516017739E+02   -0.11263E+00   -0.14113E-01  3912   0.193E+00    0.173E+01
DAV:  85    -0.725151614859E+02   -0.16356E+00   -0.20230E-01  4136   0.201E+00    0.178E+01
DAV:  86    -0.726920168011E+02   -0.17686E+00   -0.70509E-01  4024   0.290E+00    0.200E+01
DAV:  87    -0.727712454913E+02   -0.79229E-01   -0.12642E-01  4320   0.185E+00    0.197E+01
DAV:  88    -0.726872140196E+02    0.84031E-01   -0.30304E-02  3800   0.636E-01    0.191E+01
DAV:  89    -0.724775285938E+02    0.20969E+00   -0.26333E-01  4272   0.185E+00    0.184E+01
DAV:  90    -0.723949445041E+02    0.82584E-01   -0.22230E-01  3680   0.265E+00
 -----------------------------------------------------------------------------
|                                                                             |
|           W    W    AA    RRRRR   N    N  II  N    N   GGGG   !!!           |
|           W    W   A  A   R    R  NN   N  II  NN   N  G    G  !!!           |
|           W    W  A    A  R    R  N N  N  II  N N  N  G       !!!           |
|           W WW W  AAAAAA  RRRRR   N  N N  II  N  N N  G  GGG   !            |
|           WW  WW  A    A  R   R   N   NN  II  N   NN  G    G                |
|           W    W  A    A  R    R  N    N  II  N    N   GGGG   !!!           |
|                                                                             |
|     The electronic self-consistency was not achieved in the given           |
|     number of steps (NELM). The forces and other quantities evaluated       |
|     might not be reliable so examine the results carefully. If you find     |
|     spurious results, we suggest increasing NELM, if you were close to      |
|     convergence or switching to a different ALGO or adjusting the           |
|     density mixing parameters otherwise.                                    |
|                                                                             |
 -----------------------------------------------------------------------------

   1 F= -.72394945E+02 E0= -.72378279E+02  d E =-.723949E+02
 curvature:   0.00 expect dE= 0.000E+00 dE for cont linesearch  0.000E+00
 trial: gam= 0.00000 g(F)=  0.425E+01 g(S)=  0.000E+00 ort = 0.000E+00 (trialstep = 0.100E+01)
 search vector abs. value=  0.425E+01
 bond charge predicted
       N       E                     dE             d eps       ncg     rms          rms(c)
DAV:   1    -0.707695017275E+02    0.17080E+01   -0.87556E+02  2928   0.162E+02    0.452E+01
DAV:   2    -0.347516149386E+03   -0.27675E+03   -0.36607E+03  4160   0.273E+02    0.427E+02
DAV:   3    -0.214260537279E+03    0.13326E+03   -0.60238E+02  3680   0.172E+02    0.785E+01
DAV:   4    -0.986308748071E+02    0.11563E+03   -0.16827E+03  3776   0.145E+02    0.431E+01
DAV:   5    -0.104764929051E+03   -0.61341E+01   -0.41187E+02  4000   0.107E+02    0.324E+01
DAV:   6    -0.927952156899E+02    0.11970E+02   -0.39945E+01  3896   0.385E+01    0.263E+01
DAV:   7    -0.820467683288E+02    0.10748E+02   -0.15361E+01  3864   0.216E+01    0.222E+01
DAV:   8    -0.786111262186E+02    0.34356E+01   -0.25840E+01  3960   0.283E+01    0.539E+01
DAV:   9    -0.745275145344E+02    0.40836E+01   -0.29770E+01  4336   0.182E+01    0.377E+01
DAV:  10    -0.740744609820E+02    0.45305E+00   -0.19398E+00  4296   0.638E+00    0.346E+01
DAV:  11    -0.743126340411E+02   -0.23817E+00   -0.35292E-01  4352   0.334E+00    0.370E+01
DAV:  12    -0.756922464832E+02   -0.13796E+01   -0.74237E+00  4072   0.128E+01    0.472E+01
DAV:  13    -0.741666120751E+02    0.15256E+01   -0.16405E+00  4320   0.605E+00    0.424E+01
DAV:  14    -0.771706488306E+02   -0.30040E+01   -0.37875E+01  3984   0.163E+01    0.486E+01
DAV:  15    -0.714433319994E+02    0.57273E+01   -0.77674E+01  3936   0.313E+01    0.176E+01
DAV:  16    -0.710215764253E+02    0.42176E+00   -0.67786E+00  3728   0.127E+01    0.150E+01
DAV:  17    -0.723655321935E+02   -0.13440E+01   -0.17164E+01  3928   0.666E+00    0.423E+01
DAV:  18    -0.719745368284E+02    0.39100E+00   -0.25456E+00  4512   0.301E+00    0.315E+01
DAV:  19    -0.722601245352E+02   -0.28559E+00   -0.18075E+00  4304   0.243E+00    0.412E+01
DAV:  20    -0.724273250761E+02   -0.16720E+00   -0.24431E+00  4408   0.276E+00    0.382E+01
DAV:  21    -0.726490885705E+02   -0.22176E+00   -0.38402E+00  3920   0.317E+00    0.425E+01
DAV:  22    -0.728021793141E+02   -0.15309E+00   -0.59959E+00  3928   0.373E+00    0.393E+01
DAV:  23    -0.734103004654E+02   -0.60812E+00   -0.67127E+00  3672   0.431E+00    0.443E+01
DAV:  24    -0.731952468715E+02    0.21505E+00   -0.81732E+00  3808   0.451E+00    0.411E+01
DAV:  25    -0.744086369240E+02   -0.12134E+01   -0.10358E+01  3896   0.585E+00    0.410E+01
DAV:  26    -0.743352490257E+02    0.73388E-01   -0.11134E+01  3768   0.507E+00    0.396E+01
DAV:  27    -0.741680144080E+02    0.16723E+00   -0.66598E+00  4104   0.539E+00    0.405E+01
DAV:  28    -0.735037596483E+02    0.66425E+00   -0.87020E+00  4056   0.518E+00    0.400E+01
DAV:  29    -0.736027054448E+02   -0.98946E-01   -0.10480E+01  4040   0.623E+00    0.388E+01
DAV:  30    -0.729500519472E+02    0.65265E+00   -0.95197E+00  4104   0.484E+00    0.348E+01
DAV:  31    -0.718670251103E+02    0.10830E+01   -0.80153E+00  3976   0.500E+00    0.238E+01
DAV:  32    -0.718994882002E+02   -0.32463E-01   -0.51380E+00  4064   0.355E+00    0.229E+01
DAV:  33    -0.717512290545E+02    0.14826E+00   -0.29069E+00  4408   0.278E+00    0.257E+01
DAV:  34    -0.720605201665E+02   -0.30929E+00   -0.52229E+00  3752   0.396E+00    0.244E+01
DAV:  35    -0.717686377283E+02    0.29188E+00   -0.43335E+00  4424   0.285E+00    0.166E+01
DAV:  36    -0.717518935367E+02    0.16744E-01   -0.25832E+00  3848   0.329E+00    0.138E+01
DAV:  37    -0.719465068941E+02   -0.19461E+00   -0.34525E+00  3944   0.348E+00    0.255E+01
DAV:  38    -0.719306646353E+02    0.15842E-01   -0.14299E+01  3904   0.555E+00    0.137E+01
DAV:  39    -0.717546450720E+02    0.17602E+00   -0.16149E-01  3864   0.218E+00    0.139E+01
DAV:  40    -0.713725315457E+02    0.38211E+00   -0.19040E-01  3856   0.180E+00    0.127E+01
DAV:  41    -0.714907425322E+02   -0.11821E+00   -0.27855E-02  3960   0.883E-01    0.133E+01
DAV:  42    -0.715492054665E+02   -0.58463E-01   -0.54131E-02  3768   0.144E+00    0.129E+01
DAV:  43    -0.718202136500E+02   -0.27101E+00   -0.11835E-01  3408   0.210E+00    0.128E+01
DAV:  44    -0.720234747227E+02   -0.20326E+00   -0.50079E-02  3848   0.128E+00    0.129E+01
DAV:  45    -0.724765824727E+02   -0.45311E+00   -0.13449E-01  3440   0.239E+00    0.132E+01
