unknown system                          
           1
     3.866100    0.000000    0.000000
    -1.933050    3.348141    0.000000
     0.000000    0.000000   23.680700
   Ce   O 
     3     6
Direct configuration=     1
   0.69996635  0.30003365  0.31097861
   0.03353845  0.96646155  0.43731014
   0.36688563  0.63311437  0.16920752
   0.03198460  0.96801540  0.15740112
   0.69967894  0.30032106  0.43085556
   0.36675269  0.63324731  0.29192902
   0.69962109  0.30037891  0.21888462
   0.03322353  0.96677647  0.35181018
   0.36834872  0.63165128  0.09132324
