       N       E                     dE             d eps       ncg     rms          rms(c)
DAV:   1     0.105978779559E+05    0.10598E+05   -0.27762E+05  9600   0.146E+03
DAV:   2     0.271779070845E+04   -0.78801E+04   -0.65051E+04 10560   0.393E+02
DAV:   3    -0.425848707659E+03   -0.31436E+04   -0.29672E+04 12528   0.229E+02
DAV:   4    -0.832210220430E+03   -0.40636E+03   -0.40146E+03 14208   0.905E+01
DAV:   5    -0.850461367514E+03   -0.18251E+02   -0.18188E+02 16272   0.241E+01    0.154E+02
DAV:   6    -0.141708679524E+04   -0.56663E+03   -0.63953E+03 16128   0.870E+01    0.561E+02
DAV:   7    -0.114636759222E+04    0.27072E+03   -0.74507E+02 13968   0.587E+01    0.449E+02
DAV:   8    -0.135623909741E+04   -0.20987E+03   -0.11190E+03 15792   0.534E+01    0.471E+02
DAV:   9    -0.109551246672E+04    0.26073E+03   -0.27547E+02 15072   0.708E+01    0.410E+02
DAV:  10    -0.112590649164E+04   -0.30394E+02   -0.37860E+03 15936   0.190E+02    0.400E+02
DAV:  11    -0.845240480521E+03    0.28067E+03   -0.12074E+03 14592   0.131E+02    0.265E+02
DAV:  12    -0.904149249024E+03   -0.58909E+02   -0.22161E+03 16368   0.106E+02    0.324E+02
DAV:  13    -0.771154679739E+03    0.13299E+03   -0.45753E+02 14304   0.916E+01    0.179E+02
DAV:  14    -0.854244922383E+03   -0.83090E+02   -0.15257E+03 14064   0.160E+02    0.226E+02
DAV:  15    -0.731816358830E+03    0.12243E+03   -0.37272E+02 14112   0.799E+01    0.136E+02
DAV:  16    -0.729647147197E+03    0.21692E+01   -0.22813E+02 13152   0.967E+01    0.146E+02
DAV:  17    -0.681926996180E+03    0.47720E+02   -0.10838E+02 14352   0.521E+01    0.737E+01
DAV:  18    -0.676245583789E+03    0.56814E+01   -0.36260E+01 15120   0.113E+01    0.736E+01
DAV:  19    -0.666164986453E+03    0.10081E+02   -0.16447E+01 14880   0.833E+00    0.698E+01
DAV:  20    -0.660776006594E+03    0.53890E+01   -0.13497E+01 14592   0.612E+00    0.692E+01
DAV:  21    -0.647774962006E+03    0.13001E+02   -0.18594E+01 13872   0.799E+00    0.671E+01
DAV:  22    -0.645803910931E+03    0.19711E+01   -0.13348E+01 15216   0.614E+00    0.678E+01
DAV:  23    -0.645462320142E+03    0.34159E+00   -0.55781E+00 15744   0.469E+00    0.658E+01
DAV:  24    -0.645581858636E+03   -0.11954E+00   -0.21106E+00 15072   0.236E+00    0.658E+01
DAV:  25    -0.646539768356E+03   -0.95791E+00   -0.58303E-01 16992   0.187E+00    0.656E+01
DAV:  26    -0.647223288196E+03   -0.68352E+00   -0.38461E-01 14400   0.154E+00    0.655E+01
DAV:  27    -0.647240311325E+03   -0.17023E-01   -0.28980E-02 11760   0.292E-01    0.654E+01
DAV:  28    -0.647275464414E+03   -0.35153E-01   -0.77090E-02 15984   0.476E-01    0.653E+01
DAV:  29    -0.647768776606E+03   -0.49331E+00   -0.40644E-01 14160   0.116E+00    0.653E+01
DAV:  30    -0.647846828015E+03   -0.78051E-01   -0.10161E-01 14880   0.668E-01    0.652E+01
DAV:  31    -0.647837087493E+03    0.97405E-02   -0.69248E-03 12672   0.157E-01    0.652E+01
DAV:  32    -0.647998736673E+03   -0.16165E+00   -0.13498E-01 14352   0.731E-01    0.652E+01
DAV:  33    -0.648025430365E+03   -0.26694E-01   -0.12873E-02 14640   0.241E-01    0.652E+01
DAV:  34    -0.648135287793E+03   -0.10986E+00   -0.13008E-01 14928   0.793E-01    0.650E+01
DAV:  35    -0.647687241651E+03    0.44805E+00   -0.49351E-01 15744   0.173E+00    0.649E+01
DAV:  36    -0.647655551389E+03    0.31690E-01   -0.90673E-02 14544   0.724E-01    0.649E+01
