<?xml version="1.0" encoding="ISO-8859-1"?>
<modeling>
 <generator>
  <i name="program" type="string">vasp </i>
  <i name="version" type="string">6.4.3  </i>
  <i name="subversion" type="string">19Mar24 (build Mar 01 2025 17:53:50) complex                          parallel </i>
  <i name="platform" type="string">Shaheen </i>
  <i name="date" type="string">2025 04 20 </i>
  <i name="time" type="string">04:11:13 </i>
 </generator>
 <incar>
  <i type="int" name="ISTART">     1</i>
  <i type="string" name="PREC">Accurate   (Precision level: Normal or Accurate, set Accurate when perform structure lattice relaxation calculation)</i>
  <i type="logical" name="ADDGRID"> T  </i>
  <i type="int" name="ISPIN">     2</i>
  <i type="int" name="NELM">    90</i>
  <i type="int" name="NELMIN">     6</i>
  <i type="int" name="IBRION">     2</i>
  <i name="EDIFF">      0.00000100</i>
  <i name="EDIFFG">     -0.02000000</i>
  <i type="int" name="NSW">   300</i>
  <i type="int" name="ISIF">     2</i>
  <i name="ENCUT">    520.00000000</i>
  <v name="MAGMOM">      1.00000000      1.00000000      1.00000000      1.00000000      1.00000000      1.00000000      1.00000000      1.00000000      1.00000000      1.00000000      1.00000000      1.00000000      1.00000000      1.00000000      1.00000000      1.00000000      1.00000000      1.00000000      1.00000000      1.00000000
      1.00000000      0.60000000      0.60000000      0.60000000      0.60000000      0.60000000      0.60000000      0.60000000      0.60000000      0.60000000      0.60000000      0.60000000      0.60000000      0.60000000      0.60000000      0.60000000      0.60000000      0.60000000      0.60000000      0.60000000
      0.60000000      0.60000000      0.60000000      0.60000000      0.60000000      0.60000000      0.60000000      0.60000000      0.60000000      0.60000000      0.60000000      0.60000000      0.60000000      0.60000000      0.60000000      0.60000000      0.60000000      0.60000000      0.60000000      0.60000000
      0.60000000      0.60000000      0.60000000      0.60000000      0.60000000      0.60000000      0.60000000      0.60000000      0.60000000      0.60000000      0.60000000      0.60000000      0.60000000      0.60000000      0.60000000      0.60000000      0.60000000      0.60000000      0.60000000      0.60000000
      0.60000000      0.60000000      0.60000000      0.60000000      0.60000000      0.60000000      0.60000000      0.60000000      0.60000000      0.60000000</v>
  <i type="logical" name="LREAL"> F  </i>
  <i type="int" name="ISMEAR">     0</i>
  <i name="SIGMA">      0.05000000</i>
  <i type="int" name="LMAXMIX">     6</i>
  <i type="logical" name="LWAVE"> F  </i>
  <i type="logical" name="LCHARG"> F  </i>
  <i type="logical" name="LASPH"> T  </i>
  <i type="logical" name="LDAU"> T  </i>
  <i type="int" name="LDAUTYPE">     2</i>
  <v type="int" name="LDAUL">     3    -1     2</v>
  <v name="LDAUU">      5.00000000      0.00000000      2.00000000</v>
  <v name="LDAUJ">      0.00000000      0.00000000      0.00000000</v>
 </incar>
 <primitive_cell>
  <structure name="primitive_cell" >
   <crystal>
    <varray name="basis" >
     <v>      11.59820000       0.00000000       0.00000000 </v>
     <v>      -5.79910000      10.04433584       0.00000000 </v>
     <v>       0.00000000       0.00000000      21.04820000 </v>
    </varray>
    <i name="volume">   2452.03565189 </i>
    <varray name="rec_basis" >
     <v>       0.08622028       0.04977930       0.00000000 </v>
     <v>       0.00000000       0.09955860       0.00000000 </v>
     <v>       0.00000000       0.00000000       0.04751000 </v>
    </varray>
   </crystal>
   <varray name="positions" >
    <v>       0.00000000       0.00000000       0.45993000 </v>
    <v>       0.22222000       0.11111000       0.30996000 </v>
    <v>       0.11111000       0.22222000       0.15999000 </v>
    <v>       0.55556000       0.11111000       0.30996000 </v>
    <v>       0.44444000       0.22222000       0.15999000 </v>
    <v>       0.88889000       0.11111000       0.30996000 </v>
    <v>       0.77778000       0.22222000       0.15999000 </v>
    <v>       1.00000000       0.33333000       0.45993000 </v>
    <v>       0.22222000       0.44444000       0.30996000 </v>
    <v>       0.11111000       0.55556000       0.15999000 </v>
    <v>       0.55556000       0.44444000       0.30996000 </v>
    <v>       0.44444000       0.55556000       0.15999000 </v>
    <v>       0.88889000       0.44444000       0.30996000 </v>
    <v>       0.77778000       0.55556000       0.15999000 </v>
    <v>       1.00000000       0.66667000       0.45993000 </v>
    <v>       0.22222000       0.77778000       0.30996000 </v>
    <v>       0.11111000       0.88889000       0.15999000 </v>
    <v>       0.55556000       0.77778000       0.30996000 </v>
    <v>       0.44444000       0.88889000       0.15999000 </v>
    <v>       0.88889000       0.77778000       0.30996000 </v>
    <v>       0.77778000       0.88889000       0.15999000 </v>
    <v>       0.00000000       0.00000000       0.12250000 </v>
    <v>       0.11111000       0.22222000       0.27247000 </v>
    <v>       0.22222000       0.11111000       0.42244000 </v>
    <v>       0.11111000       0.22222000       0.04751000 </v>
    <v>       0.11111000       0.22222000       0.49742000 </v>
    <v>       0.00000000       0.00000000       0.34745000 </v>
    <v>       0.22222000       0.11111000       0.19748000 </v>
    <v>       0.33333000       0.00000000       0.12250000 </v>
    <v>       0.44444000       0.22222000       0.27247000 </v>
    <v>       0.55556000       0.11111000       0.42244000 </v>
    <v>       0.44444000       0.22222000       0.04751000 </v>
    <v>       0.44444000       0.22222000       0.49742000 </v>
    <v>       0.33333000       0.00000000       0.34745000 </v>
    <v>       0.55556000       0.11111000       0.19748000 </v>
    <v>       0.66667000       0.00000000       0.12250000 </v>
    <v>       0.77778000       0.22222000       0.27247000 </v>
    <v>       0.88889000       0.11111000       0.42244000 </v>
    <v>       0.77778000       0.22222000       0.04751000 </v>
    <v>       0.77778000       0.22222000       0.49742000 </v>
    <v>       0.66667000       0.00000000       0.34745000 </v>
    <v>       0.88889000       0.11111000       0.19748000 </v>
    <v>       1.00000000       0.33333000       0.12250000 </v>
    <v>       0.11111000       0.55556000       0.27247000 </v>
    <v>       0.22222000       0.44444000       0.42244000 </v>
    <v>       0.11111000       0.55556000       0.04751000 </v>
    <v>       0.11111000       0.55556000       0.49742000 </v>
    <v>       1.00000000       0.33333000       0.34745000 </v>
    <v>       0.22222000       0.44444000       0.19748000 </v>
    <v>       0.33333000       0.33333000       0.12250000 </v>
    <v>       0.44444000       0.55556000       0.27247000 </v>
    <v>       0.55556000       0.44444000       0.42244000 </v>
    <v>       0.44444000       0.55556000       0.04751000 </v>
    <v>       0.44444000       0.55556000       0.49742000 </v>
    <v>       0.33333000       0.33333000       0.34745000 </v>
    <v>       0.55556000       0.44444000       0.19748000 </v>
    <v>       0.66667000       0.33333000       0.12250000 </v>
    <v>       0.77778000       0.55556000       0.27247000 </v>
    <v>       0.88889000       0.44444000       0.42244000 </v>
    <v>       0.77778000       0.55556000       0.04751000 </v>
    <v>       0.77778000       0.55556000       0.49742000 </v>
    <v>       0.66667000       0.33333000       0.34745000 </v>
    <v>       0.88889000       0.44444000       0.19748000 </v>
    <v>       1.00000000       0.66667000       0.12250000 </v>
    <v>       0.11111000       0.88889000       0.27247000 </v>
    <v>       0.22222000       0.77778000       0.42244000 </v>
    <v>       0.11111000       0.88889000       0.04751000 </v>
    <v>       0.11111000       0.88889000       0.49742000 </v>
    <v>       1.00000000       0.66667000       0.34745000 </v>
    <v>       0.22222000       0.77778000       0.19748000 </v>
    <v>       0.33333000       0.66667000       0.12250000 </v>
    <v>       0.44444000       0.88889000       0.27247000 </v>
    <v>       0.55556000       0.77778000       0.42244000 </v>
    <v>       0.44444000       0.88889000       0.04751000 </v>
    <v>       0.44444000       0.88889000       0.49742000 </v>
    <v>       0.33333000       0.66667000       0.34745000 </v>
    <v>       0.55556000       0.77778000       0.19748000 </v>
    <v>       0.66667000       0.66667000       0.12250000 </v>
    <v>       0.77778000       0.88889000       0.27247000 </v>
    <v>       0.88889000       0.77778000       0.42244000 </v>
    <v>       0.77778000       0.88889000       0.04751000 </v>
    <v>       0.77778000       0.88889000       0.49742000 </v>
    <v>       0.66667000       0.66667000       0.34745000 </v>
    <v>       0.88889000       0.77778000       0.19748000 </v>
    <v>       0.33333000       0.00000000       0.45993000 </v>
    <v>       0.66667000       0.00000000       0.45993000 </v>
    <v>       0.33333000       0.33333000       0.45993000 </v>
    <v>       0.66667000       0.33333000       0.45993000 </v>
    <v>       0.33333000       0.66667000       0.45993000 </v>
    <v>       0.66667000       0.66667000       0.45993000 </v>
   </varray>
  </structure>
  <varray name="primitive_index" >
   <v type="int" >        1 </v>
   <v type="int" >        2 </v>
   <v type="int" >        3 </v>
   <v type="int" >        4 </v>
   <v type="int" >        5 </v>
   <v type="int" >        6 </v>
   <v type="int" >        7 </v>
   <v type="int" >        8 </v>
   <v type="int" >        9 </v>
   <v type="int" >       10 </v>
   <v type="int" >       11 </v>
   <v type="int" >       12 </v>
   <v type="int" >       13 </v>
   <v type="int" >       14 </v>
   <v type="int" >       15 </v>
   <v type="int" >       16 </v>
   <v type="int" >       17 </v>
   <v type="int" >       18 </v>
   <v type="int" >       19 </v>
   <v type="int" >       20 </v>
   <v type="int" >       21 </v>
   <v type="int" >       22 </v>
   <v type="int" >       23 </v>
   <v type="int" >       24 </v>
   <v type="int" >       25 </v>
   <v type="int" >       26 </v>
   <v type="int" >       27 </v>
   <v type="int" >       28 </v>
   <v type="int" >       29 </v>
   <v type="int" >       30 </v>
   <v type="int" >       31 </v>
   <v type="int" >       32 </v>
   <v type="int" >       33 </v>
   <v type="int" >       34 </v>
   <v type="int" >       35 </v>
   <v type="int" >       36 </v>
   <v type="int" >       37 </v>
   <v type="int" >       38 </v>
   <v type="int" >       39 </v>
   <v type="int" >       40 </v>
   <v type="int" >       41 </v>
   <v type="int" >       42 </v>
   <v type="int" >       43 </v>
   <v type="int" >       44 </v>
   <v type="int" >       45 </v>
   <v type="int" >       46 </v>
   <v type="int" >       47 </v>
   <v type="int" >       48 </v>
   <v type="int" >       49 </v>
   <v type="int" >       50 </v>
   <v type="int" >       51 </v>
   <v type="int" >       52 </v>
   <v type="int" >       53 </v>
   <v type="int" >       54 </v>
   <v type="int" >       55 </v>
   <v type="int" >       56 </v>
   <v type="int" >       57 </v>
   <v type="int" >       58 </v>
   <v type="int" >       59 </v>
   <v type="int" >       60 </v>
   <v type="int" >       61 </v>
   <v type="int" >       62 </v>
   <v type="int" >       63 </v>
   <v type="int" >       64 </v>
   <v type="int" >       65 </v>
   <v type="int" >       66 </v>
   <v type="int" >       67 </v>
   <v type="int" >       68 </v>
   <v type="int" >       69 </v>
   <v type="int" >       70 </v>
   <v type="int" >       71 </v>
   <v type="int" >       72 </v>
   <v type="int" >       73 </v>
   <v type="int" >       74 </v>
   <v type="int" >       75 </v>
   <v type="int" >       76 </v>
   <v type="int" >       77 </v>
   <v type="int" >       78 </v>
   <v type="int" >       79 </v>
   <v type="int" >       80 </v>
   <v type="int" >       81 </v>
   <v type="int" >       82 </v>
   <v type="int" >       83 </v>
   <v type="int" >       84 </v>
   <v type="int" >       85 </v>
   <v type="int" >       86 </v>
   <v type="int" >       87 </v>
   <v type="int" >       88 </v>
   <v type="int" >       89 </v>
   <v type="int" >       90 </v>
  </varray>
 </primitive_cell>
 <kpoints>
  <generation param="Monkhorst-Pack">
   <v type="int" name="divisions">       3        3        1 </v>
   <v name="usershift">      0.00000000       0.00000000       0.00000000 </v>
   <v name="genvec1">      0.33333333      -0.00000000       0.00000000 </v>
   <v name="genvec2">      0.00000000       0.33333333       0.00000000 </v>
   <v name="genvec3">      0.00000000       0.00000000       1.00000000 </v>
   <v name="shift">      0.00000000       0.00000000       0.00000000 </v>
  </generation>
  <varray name="kpointlist" >
   <v>       0.00000000       0.00000000       0.00000000 </v>
   <v>       0.33333333      -0.00000000       0.00000000 </v>
   <v>       0.00000000       0.33333333       0.00000000 </v>
   <v>      -0.33333333       0.33333333       0.00000000 </v>
   <v>       0.33333333       0.33333333       0.00000000 </v>
  </varray>
  <varray name="weights" >
   <v>       0.11111111 </v>
   <v>       0.22222222 </v>
   <v>       0.22222222 </v>
   <v>       0.22222222 </v>
   <v>       0.22222222 </v>
  </varray>
 </kpoints>
 <parameters>
  <separator name="general" >
   <i type="string" name="SYSTEM">unknown system</i>
   <i type="logical" name="LCOMPAT"> F  </i>
  </separator>
  <separator name="electronic" >
   <i type="string" name="PREC">accura</i>
   <i name="ENMAX">    520.00000000</i>
   <i name="ENAUG">    605.39200000</i>
   <i name="EDIFF">      0.00000100</i>
   <i type="int" name="IALGO">    38</i>
   <i type="int" name="IWAVPR">    11</i>
   <i type="int" name="NBANDS">   480</i>
   <i type="int" name="NBANDSLOW">    -1</i>
   <i type="int" name="NBANDSHIGH">    -1</i>
   <i name="NELECT">    684.00000000</i>
   <i type="int" name="TURBO">     0</i>
   <i type="int" name="IRESTART">     0</i>
   <i type="int" name="NREBOOT">     0</i>
   <i type="int" name="NMIN">     0</i>
   <i name="EREF">      0.00000000</i>
   <separator name="electronic smearing" >
    <i type="int" name="ISMEAR">     0</i>
    <i name="SIGMA">      0.05000000</i>
    <i name="KSPACING">      0.50000000</i>
    <i type="logical" name="KGAMMA"> T  </i>
    <i type="logical" name="KBLOWUP"> T  </i>
   </separator>
   <separator name="electronic projectors" >
    <i type="logical" name="LREAL"> F  </i>
    <v name="ROPT">      0.00000000      0.00000000      0.00000000</v>
    <i type="int" name="LMAXPAW">  -100</i>
    <i type="int" name="LMAXMIX">     6</i>
    <i type="logical" name="NLSPLINE"> F  </i>
   </separator>
   <separator name="electronic startup" >
    <i type="int" name="ISTART">     0</i>
    <i type="int" name="ICHARG">     2</i>
    <i type="int" name="INIWAV">     1</i>
   </separator>
   <separator name="electronic spin" >
    <i type="int" name="ISPIN">     2</i>
    <i type="logical" name="LNONCOLLINEAR"> F  </i>
    <v name="MAGMOM">      1.00000000      1.00000000      1.00000000      1.00000000      1.00000000      1.00000000      1.00000000      1.00000000      1.00000000      1.00000000      1.00000000      1.00000000      1.00000000      1.00000000      1.00000000      1.00000000      1.00000000      1.00000000      1.00000000      1.00000000
      1.00000000      0.60000000      0.60000000      0.60000000      0.60000000      0.60000000      0.60000000      0.60000000      0.60000000      0.60000000      0.60000000      0.60000000      0.60000000      0.60000000      0.60000000      0.60000000      0.60000000      0.60000000      0.60000000      0.60000000
      0.60000000      0.60000000      0.60000000      0.60000000      0.60000000      0.60000000      0.60000000      0.60000000      0.60000000      0.60000000      0.60000000      0.60000000      0.60000000      0.60000000      0.60000000      0.60000000      0.60000000      0.60000000      0.60000000      0.60000000
      0.60000000      0.60000000      0.60000000      0.60000000      0.60000000      0.60000000      0.60000000      0.60000000      0.60000000      0.60000000      0.60000000      0.60000000      0.60000000      0.60000000      0.60000000      0.60000000      0.60000000      0.60000000      0.60000000      0.60000000
      0.60000000      0.60000000      0.60000000      0.60000000      0.60000000      0.60000000      0.60000000      0.60000000      0.60000000      0.60000000</v>
    <i name="NUPDOWN">     -1.00000000</i>
    <i type="logical" name="LSORBIT"> F  </i>
    <v name="SAXIS">      0.00000000      0.00000000      1.00000000</v>
    <i type="logical" name="LSPIRAL"> F  </i>
    <v name="QSPIRAL">      0.00000000      0.00000000      0.00000000</v>
    <i type="logical" name="LZEROZ"> F  </i>
   </separator>
   <separator name="electronic exchange-correlation" >
    <i type="logical" name="LASPH"> T  </i>
   </separator>
   <separator name="electronic convergence" >
    <i type="int" name="NELM">    90</i>
    <i type="int" name="NELMDL">     0</i>
    <i type="int" name="NELMIN">     6</i>
    <i name="ENINI">    520.00000000</i>
    <separator name="electronic convergence detail" >
     <i type="logical" name="LDIAG"> T  </i>
     <i type="logical" name="LSUBROT"> F  </i>
     <i name="WEIMIN">      0.00100000</i>
     <i name="EBREAK">      0.00000000</i>
     <i name="DEPER">      0.30000000</i>
     <i type="int" name="NRMM">     4</i>
     <i name="TIME">      0.40000000</i>
    </separator>
   </separator>
   <separator name="electronic mixer" >
    <i name="AMIX">      0.40000000</i>
    <i name="BMIX">      1.00000000</i>
    <i name="AMIN">      0.10000000</i>
    <i name="AMIX_MAG">      1.60000000</i>
    <i name="BMIX_MAG">      1.00000000</i>
    <separator name="electronic mixer details" >
     <i type="int" name="IMIX">     4</i>
     <i type="logical" name="MIXFIRST"> F  </i>
     <i type="int" name="MAXMIX">   -45</i>
     <i name="WC">    100.00000000</i>
     <i type="int" name="INIMIX">     1</i>
     <i type="int" name="MIXPRE">     1</i>
     <i type="int" name="MREMOVE">     5</i>
    </separator>
   </separator>
   <separator name="electronic dipolcorrection" >
    <i type="logical" name="LDIPOL"> F  </i>
    <i type="logical" name="LMONO"> F  </i>
    <i type="int" name="IDIPOL">     0</i>
    <i name="EPSILON">      1.00000000</i>
    <v name="DIPOL">   -100.00000000   -100.00000000   -100.00000000</v>
    <i name="EFIELD">      0.00000000</i>
    <i type="logical" name="LVACPOTAV"> F  </i>
   </separator>
  </separator>
  <separator name="grids" >
   <i type="int" name="NGX">    90</i>
   <i type="int" name="NGY">    90</i>
   <i type="int" name="NGZ">   160</i>
   <i type="int" name="NGXF">   180</i>
   <i type="int" name="NGYF">   180</i>
   <i type="int" name="NGZF">   320</i>
   <i type="logical" name="ADDGRID"> T  </i>
  </separator>
  <separator name="ionic" >
   <i type="int" name="NSW">   300</i>
   <i type="int" name="IBRION">     2</i>
   <i type="int" name="MDALGO">     0</i>
   <i type="int" name="ISIF">     2</i>
   <i name="PSTRESS">      0.00000000</i>
   <i name="EDIFFG">     -0.02000000</i>
   <i type="int" name="NFREE">     1</i>
   <i name="POTIM">      0.50000000</i>
   <i name="SMASS">     -3.00000000</i>
   <i name="SCALEE">      1.00000000</i>
  </separator>
  <separator name="ionic md" >
   <i name="TEBEG">      0.00010000</i>
   <i name="TEEND">      0.00010000</i>
   <i type="int" name="NBLOCK">     1</i>
   <i type="int" name="KBLOCK">   300</i>
   <i type="int" name="NPACO">   256</i>
   <i name="APACO">     10.00000000</i>
  </separator>
  <separator name="symmetry" >
   <i type="int" name="ISYM">     2</i>
   <i name="SYMPREC">      0.00001000</i>
  </separator>
  <separator name="dos" >
   <i type="int" name="LORBIT">     0</i>
   <v name="RWIGS">     -1.00000000     -1.00000000     -1.00000000</v>
   <i type="int" name="NEDOS">   301</i>
   <i name="EMIN">     10.00000000</i>
   <i name="EMAX">    -10.00000000</i>
   <i name="EFERMI">      0.00000000</i>
  </separator>
  <separator name="writing" >
   <i type="int" name="NWRITE">     2</i>
   <i type="logical" name="LWAVE"> F  </i>
   <i type="logical" name="LDOWNSAMPLE"> F  </i>
   <i type="logical" name="LCHARG"> F  </i>
   <i type="logical" name="LPARD"> F  </i>
   <i type="logical" name="LVTOT"> F  </i>
   <i type="logical" name="LVHAR"> F  </i>
   <i type="logical" name="LELF"> F  </i>
   <i type="logical" name="LOPTICS"> F  </i>
   <v name="STM">      0.00000000      0.00000000      0.00000000      0.00000000      0.00000000      0.00000000      0.00000000</v>
  </separator>
  <separator name="performance" >
   <i type="int" name="NPAR">    48</i>
   <i type="int" name="NSIM">     4</i>
   <i type="int" name="NBLK">    -1</i>
   <i type="logical" name="LPLANE"> T  </i>
   <i type="logical" name="LSCALAPACK"> T  </i>
   <i type="logical" name="LSCAAWARE"> T  </i>
   <i type="logical" name="LSCALU"> F  </i>
   <i type="logical" name="LASYNC"> F  </i>
   <i type="logical" name="LORBITALREAL"> F  </i>
  </separator>
  <separator name="miscellaneous" >
   <i type="int" name="IDIOT">     3</i>
   <i type="int" name="PHON_NSTRUCT">    -1</i>
   <i type="logical" name="LMUSIC"> F  </i>
   <v name="POMASS">    140.11500000     16.00000000    192.22000000</v>
   <v name="DARWINR">      0.00000000      0.00000000      0.00000000</v>
   <v name="DARWINV">      1.00000000      1.00000000      1.00000000</v>
   <i type="logical" name="LCORR"> T  </i>
  </separator>
  <i type="logical" name="GGA_COMPAT"> T  </i>
  <i type="logical" name="LBERRY"> F  </i>
  <i type="int" name="ICORELEVEL">     0</i>
  <i type="logical" name="LDAU"> T  </i>
  <v type="int" name="LDAUTYPE">     2</v>
  <v type="int" name="LDAUL">     3</v>
  <v name="LDAUU">      5.00000000</v>
  <v name="LDAUJ">      0.00000000</v>
  <i type="int" name="LDAUPRINT">     0</i>
  <i type="int" name="I_CONSTRAINED_M">     0</i>
  <separator name="electronic exchange-correlation" >
   <i type="string" name="GGA    ">PE</i>
   <i type="string" name="XC_C">1</i>
   <i type="int" name="VOSKOWN">     0</i>
   <i type="logical" name="LHFCALC"> F  </i>
   <i type="string" name="PRECFOCK"></i>
   <i type="logical" name="LSYMGRAD"> F  </i>
   <i type="logical" name="LHFONE"> F  </i>
   <i type="logical" name="LRHFCALC"> F  </i>
   <i type="logical" name="LTHOMAS"> F  </i>
   <i type="logical" name="LMODELHF"> F  </i>
   <i type="logical" name="LFOCKACE"> F  </i>
   <i name="ENCUT4O">     -1.00000000</i>
   <i type="int" name="EXXOEP">     0</i>
   <i type="int" name="FOURORBIT">     0</i>
   <i name="AEXX">      0.00000000</i>
   <i name="HFALPHA">      0.00000000</i>
   <i name="MCALPHA">      0.00000000</i>
   <i name="ALDAX">      1.00000000</i>
   <i name="AGGAX">      1.00000000</i>
   <i name="AMGGAX">      1.00000000</i>
   <i name="ALDAC">      1.00000000</i>
   <i name="AGGAC">      1.00000000</i>
   <i name="AMGGAC">      1.00000000</i>
   <i type="int" name="NKREDX">     1</i>
   <i type="int" name="NKREDY">     1</i>
   <i type="int" name="NKREDZ">     1</i>
   <i type="logical" name="SHIFTRED"> F  </i>
   <i type="logical" name="ODDONLY"> F  </i>
   <i type="logical" name="EVENONLY"> F  </i>
   <i type="int" name="LMAXFOCK">     0</i>
   <i type="int" name="NMAXFOCKAE">     0</i>
   <i type="logical" name="LFOCKAEDFT"> F  </i>
   <i name="HFSCREEN">      0.00000000</i>
   <i name="HFSCREENC">      0.00000000</i>
   <i type="int" name="NBANDSGWLOW">     0</i>
  </separator>
  <separator name="vdW DFT" >
   <i type="logical" name="LUSE_VDW"> F  </i>
   <i type="int" name="IVDW_NL">    -1</i>
   <i type="logical" name="LSPIN_VDW"> F  </i>
   <i name="ZAB_VDW">     -0.84910000</i>
   <i name="GAMMA_VDW">      1.39626340</i>
   <i name="ALPHA_VDW">      0.00000000</i>
   <i name="PARAM1">      0.12340000</i>
   <i name="PARAM2">      1.00000000</i>
   <i name="BPARAM">      6.30000000</i>
   <i name="CPARAM">      0.00930000</i>
  </separator>
  <separator name="model GW" >
   <i type="int" name="MODEL_GW">     0</i>
   <i name="MODEL_EPS0">     16.34690435</i>
   <i name="MODEL_ALPHA">      1.00000000</i>
  </separator>
  <separator name="linear response parameters" >
   <i type="logical" name="LEPSILON"> F  </i>
   <i type="logical" name="LRPA"> F  </i>
   <i type="logical" name="LNABLA"> F  </i>
   <i type="logical" name="LVEL"> F  </i>
   <i name="CSHIFT">      0.10000000</i>
   <i name="OMEGAMAX">     -1.00000000</i>
   <i name="DEG_THRESHOLD">      0.00200000</i>
   <i name="RTIME">     -0.10000000</i>
   <i name="WPLASMAI">      0.00000000</i>
   <v name="DFIELD">      0.00000000      0.00000000      0.00000000</v>
   <v name="WPLASMA">      0.00000000      0.00000000      0.00000000      0.00000000      0.00000000      0.00000000      0.00000000      0.00000000      0.00000000</v>
  </separator>
  <separator name="orbital magnetization" >
   <i type="logical" name="NUCIND"> F  </i>
   <v name="MAGPOS">      0.00000000      0.00000000      0.00000000</v>
   <i type="logical" name="LNICSALL"> T  </i>
   <i type="logical" name="ORBITALMAG"> F  </i>
   <i type="logical" name="LMAGBLOCH"> F  </i>
   <i type="logical" name="LCHIMAG"> F  </i>
   <i type="logical" name="LGAUGE"> T  </i>
   <i type="int" name="MAGATOM">     0</i>
   <v name="MAGDIPOL">      0.00000000      0.00000000      0.00000000</v>
   <v name="AVECCONST">      0.00000000      0.00000000      0.00000000</v>
  </separator>
  <separator name="response functions" >
   <i type="logical" name="LALL_IN_ONE"> F  </i>
   <i type="int" name="IALL_IN_ONE">    -1</i>
   <i type="int" name="NBANDS_WAVE">    -1</i>
   <i type="logical" name="LFINITE_TEMPERATURE"> F  </i>
   <i type="logical" name="LADDER"> F  </i>
   <i type="logical" name="LRPAFORCE"> F  </i>
   <i type="logical" name="LFXC"> F  </i>
   <i type="logical" name="LHARTREE"> T  </i>
   <i type="int" name="IBSE">     0</i>
   <v type="int" name="KPOINT">    -1     0     0     0</v>
   <i type="logical" name="LTCTC"> F  </i>
   <i type="logical" name="LTCTE"> F  </i>
   <i type="logical" name="LTETE"> F  </i>
   <i type="logical" name="LTRIPLET"> F  </i>
   <i type="logical" name="LFXCEPS"> F  </i>
   <i type="logical" name="LFXHEG"> F  </i>
   <i type="int" name="NATURALO">     2</i>
   <i type="logical" name="LHOLEGF"> F  </i>
   <i type="logical" name="L2ORDER"> F  </i>
   <i type="logical" name="LDMP1"> F  </i>
   <i type="logical" name="LMP2LT"> F  </i>
   <i type="logical" name="LSMP2LT"> F  </i>
   <i type="logical" name="LGWLF"> F  </i>
   <i name="ENCUTGW">     -1.60000002</i>
   <i name="ENCUTGWSOFT">     -1.60000002</i>
   <i name="ENCUTLF">     -1.00000000</i>
   <i type="logical" name="ESF_SPLINES"> F  </i>
   <i name="ESF_CONV">      0.01000000</i>
   <i type="int" name="ESF_NINTER">    15</i>
   <i type="int" name="LMAXMP2">    -1</i>
   <i name="SCISSOR">      0.00000000</i>
   <i type="int" name="NOMEGA">     0</i>
   <i type="int" name="NOMEGAR">     0</i>
   <i type="int" name="NBANDSGW">    -1</i>
   <i type="int" name="NBANDSO">    -1</i>
   <i type="int" name="NBANDSV">    -1</i>
   <i type="int" name="NELMGW">     1</i>
   <i type="int" name="NELMHF">     1</i>
   <i type="int" name="DIM">     3</i>
   <i type="int" name="IESPILON">     4</i>
   <i type="int" name="ANTIRES">     0</i>
   <i name="OMEGAMAX">    -30.00000000</i>
   <i name="OMEGAMIN">    -30.00000000</i>
   <i name="OMEGATL">   -200.00000000</i>
   <i type="int" name="OMEGAGRID">     0</i>
   <i name="CSHIFT">     -0.10000000</i>
   <i type="logical" name="LSELFENERGY"> F  </i>
   <i type="logical" name="LSPECTRAL"> F  </i>
   <i type="logical" name="LSPECTRALGW"> F  </i>
   <i type="logical" name="LSINGLES"> F  </i>
   <i type="logical" name="LFERMIGW"> F  </i>
   <i type="logical" name="ODDONLYGW"> F  </i>
   <i type="logical" name="EVENONLYGW"> F  </i>
   <i type="int" name="NKREDLFX">     1</i>
   <i type="int" name="NKREDLFY">     1</i>
   <i type="int" name="NKREDLFZ">     1</i>
   <i type="int" name="MAXMEM">  2800</i>
   <i type="int" name="TELESCOPE">     0</i>
   <i type="int" name="NTAUPAR">    -1</i>
   <i type="int" name="NOMEGAPAR">    -1</i>
   <i name="DAMP_NEWTON">      0.80000001</i>
   <i name="LAMBDA">      1.00000000</i>
  </separator>
  <separator name="External order field" >
   <i name="OFIELD_KAPPA">      0.00000000</i>
   <v name="OFIELD_K">      0.00000000      0.00000000      0.00000000</v>
   <i name="OFIELD_Q6_NEAR">      0.00000000</i>
   <i name="OFIELD_Q6_FAR">      0.00000000</i>
   <i name="OFIELD_A">      0.00000000</i>
  </separator>
  <separator name="optional k-points parameters" >
   <i type="int" name="KPOINTS_OPT_MODE">     1</i>
   <i type="logical" name="LKPOINTS_OPT"> F  </i>
  </separator>
 </parameters>
 <atominfo>
  <atoms>      90 </atoms>
  <types>       3 </types>
  <array name="atoms" >
   <dimension dim="1">ion</dimension>
   <field type="string">element</field>
   <field type="int">atomtype</field>
   <set>
    <rc><c>Ce</c><c>   1</c></rc>
    <rc><c>Ce</c><c>   1</c></rc>
    <rc><c>Ce</c><c>   1</c></rc>
    <rc><c>Ce</c><c>   1</c></rc>
    <rc><c>Ce</c><c>   1</c></rc>
    <rc><c>Ce</c><c>   1</c></rc>
    <rc><c>Ce</c><c>   1</c></rc>
    <rc><c>Ce</c><c>   1</c></rc>
    <rc><c>Ce</c><c>   1</c></rc>
    <rc><c>Ce</c><c>   1</c></rc>
    <rc><c>Ce</c><c>   1</c></rc>
    <rc><c>Ce</c><c>   1</c></rc>
    <rc><c>Ce</c><c>   1</c></rc>
    <rc><c>Ce</c><c>   1</c></rc>
    <rc><c>Ce</c><c>   1</c></rc>
    <rc><c>Ce</c><c>   1</c></rc>
    <rc><c>Ce</c><c>   1</c></rc>
    <rc><c>Ce</c><c>   1</c></rc>
    <rc><c>Ce</c><c>   1</c></rc>
    <rc><c>Ce</c><c>   1</c></rc>
    <rc><c>Ce</c><c>   1</c></rc>
    <rc><c>O </c><c>   2</c></rc>
    <rc><c>O </c><c>   2</c></rc>
    <rc><c>O </c><c>   2</c></rc>
    <rc><c>O </c><c>   2</c></rc>
    <rc><c>O </c><c>   2</c></rc>
    <rc><c>O </c><c>   2</c></rc>
    <rc><c>O </c><c>   2</c></rc>
    <rc><c>O </c><c>   2</c></rc>
    <rc><c>O </c><c>   2</c></rc>
    <rc><c>O </c><c>   2</c></rc>
    <rc><c>O </c><c>   2</c></rc>
    <rc><c>O </c><c>   2</c></rc>
    <rc><c>O </c><c>   2</c></rc>
    <rc><c>O </c><c>   2</c></rc>
    <rc><c>O </c><c>   2</c></rc>
    <rc><c>O </c><c>   2</c></rc>
    <rc><c>O </c><c>   2</c></rc>
    <rc><c>O </c><c>   2</c></rc>
    <rc><c>O </c><c>   2</c></rc>
    <rc><c>O </c><c>   2</c></rc>
    <rc><c>O </c><c>   2</c></rc>
    <rc><c>O </c><c>   2</c></rc>
    <rc><c>O </c><c>   2</c></rc>
    <rc><c>O </c><c>   2</c></rc>
    <rc><c>O </c><c>   2</c></rc>
    <rc><c>O </c><c>   2</c></rc>
    <rc><c>O </c><c>   2</c></rc>
    <rc><c>O </c><c>   2</c></rc>
    <rc><c>O </c><c>   2</c></rc>
    <rc><c>O </c><c>   2</c></rc>
    <rc><c>O </c><c>   2</c></rc>
    <rc><c>O </c><c>   2</c></rc>
    <rc><c>O </c><c>   2</c></rc>
    <rc><c>O </c><c>   2</c></rc>
    <rc><c>O </c><c>   2</c></rc>
    <rc><c>O </c><c>   2</c></rc>
    <rc><c>O </c><c>   2</c></rc>
    <rc><c>O </c><c>   2</c></rc>
    <rc><c>O </c><c>   2</c></rc>
    <rc><c>O </c><c>   2</c></rc>
    <rc><c>O </c><c>   2</c></rc>
    <rc><c>O </c><c>   2</c></rc>
    <rc><c>O </c><c>   2</c></rc>
    <rc><c>O </c><c>   2</c></rc>
    <rc><c>O </c><c>   2</c></rc>
    <rc><c>O </c><c>   2</c></rc>
    <rc><c>O </c><c>   2</c></rc>
    <rc><c>O </c><c>   2</c></rc>
    <rc><c>O </c><c>   2</c></rc>
    <rc><c>O </c><c>   2</c></rc>
    <rc><c>O </c><c>   2</c></rc>
    <rc><c>O </c><c>   2</c></rc>
    <rc><c>O </c><c>   2</c></rc>
    <rc><c>O </c><c>   2</c></rc>
    <rc><c>O </c><c>   2</c></rc>
    <rc><c>O </c><c>   2</c></rc>
    <rc><c>O </c><c>   2</c></rc>
    <rc><c>O </c><c>   2</c></rc>
    <rc><c>O </c><c>   2</c></rc>
    <rc><c>O </c><c>   2</c></rc>
    <rc><c>O </c><c>   2</c></rc>
    <rc><c>O </c><c>   2</c></rc>
    <rc><c>O </c><c>   2</c></rc>
    <rc><c>Ir</c><c>   3</c></rc>
    <rc><c>Ir</c><c>   3</c></rc>
    <rc><c>Ir</c><c>   3</c></rc>
    <rc><c>Ir</c><c>   3</c></rc>
    <rc><c>Ir</c><c>   3</c></rc>
    <rc><c>Ir</c><c>   3</c></rc>
   </set>
  </array>
  <array name="atomtypes" >
   <dimension dim="1">type</dimension>
   <field type="int">atomspertype</field>
   <field type="string">element</field>
   <field>mass</field>
   <field>valence</field>
   <field type="string">pseudopotential</field>
   <set>
    <rc><c>  21</c><c>Ce</c><c>    140.11500000</c><c>     12.00000000</c><c>  PAW_PBE Ce 23Dec2003                  </c></rc>
    <rc><c>  63</c><c>O </c><c>     16.00000000</c><c>      6.00000000</c><c>  PAW_PBE O 08Apr2002                   </c></rc>
    <rc><c>   6</c><c>Ir</c><c>    192.22000000</c><c>      9.00000000</c><c>  PAW_PBE Ir 06Sep2000                  </c></rc>
   </set>
  </array>
 </atominfo>
 <structure name="initialpos" >
  <crystal>
   <varray name="basis" >
    <v>      11.59820000       0.00000000       0.00000000 </v>
    <v>      -5.79910000      10.04433584       0.00000000 </v>
    <v>       0.00000000       0.00000000      21.04820000 </v>
   </varray>
   <i name="volume">   2452.03565189 </i>
   <varray name="rec_basis" >
    <v>       0.08622028       0.04977930       0.00000000 </v>
    <v>       0.00000000       0.09955860       0.00000000 </v>
    <v>       0.00000000       0.00000000       0.04751000 </v>
   </varray>
  </crystal>
  <varray name="positions" >
   <v>       0.00000000       0.00000000       0.45993000 </v>
   <v>       0.22222000       0.11111000       0.30996000 </v>
   <v>       0.11111000       0.22222000       0.15999000 </v>
   <v>       0.55556000       0.11111000       0.30996000 </v>
   <v>       0.44444000       0.22222000       0.15999000 </v>
   <v>       0.88889000       0.11111000       0.30996000 </v>
   <v>       0.77778000       0.22222000       0.15999000 </v>
   <v>       0.00000000       0.33333000       0.45993000 </v>
   <v>       0.22222000       0.44444000       0.30996000 </v>
   <v>       0.11111000       0.55556000       0.15999000 </v>
   <v>       0.55556000       0.44444000       0.30996000 </v>
   <v>       0.44444000       0.55556000       0.15999000 </v>
   <v>       0.88889000       0.44444000       0.30996000 </v>
   <v>       0.77778000       0.55556000       0.15999000 </v>
   <v>       0.00000000       0.66667000       0.45993000 </v>
   <v>       0.22222000       0.77778000       0.30996000 </v>
   <v>       0.11111000       0.88889000       0.15999000 </v>
   <v>       0.55556000       0.77778000       0.30996000 </v>
   <v>       0.44444000       0.88889000       0.15999000 </v>
   <v>       0.88889000       0.77778000       0.30996000 </v>
   <v>       0.77778000       0.88889000       0.15999000 </v>
   <v>       0.00000000       0.00000000       0.12250000 </v>
   <v>       0.11111000       0.22222000       0.27247000 </v>
   <v>       0.22222000       0.11111000       0.42244000 </v>
   <v>       0.11111000       0.22222000       0.04751000 </v>
   <v>       0.11111000       0.22222000       0.49742000 </v>
   <v>       0.00000000       0.00000000       0.34745000 </v>
   <v>       0.22222000       0.11111000       0.19748000 </v>
   <v>       0.33333000       0.00000000       0.12250000 </v>
   <v>       0.44444000       0.22222000       0.27247000 </v>
   <v>       0.55556000       0.11111000       0.42244000 </v>
   <v>       0.44444000       0.22222000       0.04751000 </v>
   <v>       0.44444000       0.22222000       0.49742000 </v>
   <v>       0.33333000       0.00000000       0.34745000 </v>
   <v>       0.55556000       0.11111000       0.19748000 </v>
   <v>       0.66667000       0.00000000       0.12250000 </v>
   <v>       0.77778000       0.22222000       0.27247000 </v>
   <v>       0.88889000       0.11111000       0.42244000 </v>
   <v>       0.77778000       0.22222000       0.04751000 </v>
   <v>       0.77778000       0.22222000       0.49742000 </v>
   <v>       0.66667000       0.00000000       0.34745000 </v>
   <v>       0.88889000       0.11111000       0.19748000 </v>
   <v>       0.00000000       0.33333000       0.12250000 </v>
   <v>       0.11111000       0.55556000       0.27247000 </v>
   <v>       0.22222000       0.44444000       0.42244000 </v>
   <v>       0.11111000       0.55556000       0.04751000 </v>
   <v>       0.11111000       0.55556000       0.49742000 </v>
   <v>       0.00000000       0.33333000       0.34745000 </v>
   <v>       0.22222000       0.44444000       0.19748000 </v>
   <v>       0.33333000       0.33333000       0.12250000 </v>
   <v>       0.44444000       0.55556000       0.27247000 </v>
   <v>       0.55556000       0.44444000       0.42244000 </v>
   <v>       0.44444000       0.55556000       0.04751000 </v>
   <v>       0.44444000       0.55556000       0.49742000 </v>
   <v>       0.33333000       0.33333000       0.34745000 </v>
   <v>       0.55556000       0.44444000       0.19748000 </v>
   <v>       0.66667000       0.33333000       0.12250000 </v>
   <v>       0.77778000       0.55556000       0.27247000 </v>
   <v>       0.88889000       0.44444000       0.42244000 </v>
   <v>       0.77778000       0.55556000       0.04751000 </v>
   <v>       0.77778000       0.55556000       0.49742000 </v>
   <v>       0.66667000       0.33333000       0.34745000 </v>
   <v>       0.88889000       0.44444000       0.19748000 </v>
   <v>       0.00000000       0.66667000       0.12250000 </v>
   <v>       0.11111000       0.88889000       0.27247000 </v>
   <v>       0.22222000       0.77778000       0.42244000 </v>
   <v>       0.11111000       0.88889000       0.04751000 </v>
   <v>       0.11111000       0.88889000       0.49742000 </v>
   <v>       0.00000000       0.66667000       0.34745000 </v>
   <v>       0.22222000       0.77778000       0.19748000 </v>
   <v>       0.33333000       0.66667000       0.12250000 </v>
   <v>       0.44444000       0.88889000       0.27247000 </v>
   <v>       0.55556000       0.77778000       0.42244000 </v>
   <v>       0.44444000       0.88889000       0.04751000 </v>
   <v>       0.44444000       0.88889000       0.49742000 </v>
   <v>       0.33333000       0.66667000       0.34745000 </v>
   <v>       0.55556000       0.77778000       0.19748000 </v>
   <v>       0.66667000       0.66667000       0.12250000 </v>
   <v>       0.77778000       0.88889000       0.27247000 </v>
   <v>       0.88889000       0.77778000       0.42244000 </v>
   <v>       0.77778000       0.88889000       0.04751000 </v>
   <v>       0.77778000       0.88889000       0.49742000 </v>
   <v>       0.66667000       0.66667000       0.34745000 </v>
   <v>       0.88889000       0.77778000       0.19748000 </v>
   <v>       0.33333000       0.00000000       0.45993000 </v>
   <v>       0.66667000       0.00000000       0.45993000 </v>
   <v>       0.33333000       0.33333000       0.45993000 </v>
   <v>       0.66667000       0.33333000       0.45993000 </v>
   <v>       0.33333000       0.66667000       0.45993000 </v>
   <v>       0.66667000       0.66667000       0.45993000 </v>
  </varray>
  <varray name="selective"  type="logical" >
   <v type="logical" >  T  T  T </v>
   <v type="logical" >  T  T  T </v>
   <v type="logical" >  F  F  F </v>
   <v type="logical" >  T  T  T </v>
   <v type="logical" >  F  F  F </v>
   <v type="logical" >  T  T  T </v>
   <v type="logical" >  F  F  F </v>
   <v type="logical" >  T  T  T </v>
   <v type="logical" >  T  T  T </v>
   <v type="logical" >  F  F  F </v>
   <v type="logical" >  T  T  T </v>
   <v type="logical" >  F  F  F </v>
   <v type="logical" >  T  T  T </v>
   <v type="logical" >  F  F  F </v>
   <v type="logical" >  T  T  T </v>
   <v type="logical" >  T  T  T </v>
   <v type="logical" >  F  F  F </v>
   <v type="logical" >  T  T  T </v>
   <v type="logical" >  F  F  F </v>
   <v type="logical" >  T  T  T </v>
   <v type="logical" >  F  F  F </v>
   <v type="logical" >  F  F  F </v>
   <v type="logical" >  T  T  T </v>
   <v type="logical" >  T  T  T </v>
   <v type="logical" >  F  F  F </v>
   <v type="logical" >  T  T  T </v>
   <v type="logical" >  T  T  T </v>
   <v type="logical" >  F  F  F </v>
   <v type="logical" >  F  F  F </v>
   <v type="logical" >  T  T  T </v>
   <v type="logical" >  T  T  T </v>
   <v type="logical" >  F  F  F </v>
   <v type="logical" >  T  T  T </v>
   <v type="logical" >  T  T  T </v>
   <v type="logical" >  F  F  F </v>
   <v type="logical" >  F  F  F </v>
   <v type="logical" >  T  T  T </v>
   <v type="logical" >  T  T  T </v>
   <v type="logical" >  F  F  F </v>
   <v type="logical" >  T  T  T </v>
   <v type="logical" >  T  T  T </v>
   <v type="logical" >  F  F  F </v>
   <v type="logical" >  F  F  F </v>
   <v type="logical" >  T  T  T </v>
   <v type="logical" >  T  T  T </v>
   <v type="logical" >  F  F  F </v>
   <v type="logical" >  T  T  T </v>
   <v type="logical" >  T  T  T </v>
   <v type="logical" >  F  F  F </v>
   <v type="logical" >  F  F  F </v>
   <v type="logical" >  T  T  T </v>
   <v type="logical" >  T  T  T </v>
   <v type="logical" >  F  F  F </v>
   <v type="logical" >  T  T  T </v>
   <v type="logical" >  T  T  T </v>
   <v type="logical" >  F  F  F </v>
   <v type="logical" >  F  F  F </v>
   <v type="logical" >  T  T  T </v>
   <v type="logical" >  T  T  T </v>
   <v type="logical" >  F  F  F </v>
   <v type="logical" >  T  T  T </v>
   <v type="logical" >  T  T  T </v>
   <v type="logical" >  F  F  F </v>
   <v type="logical" >  F  F  F </v>
   <v type="logical" >  T  T  T </v>
   <v type="logical" >  T  T  T </v>
   <v type="logical" >  F  F  F </v>
   <v type="logical" >  T  T  T </v>
   <v type="logical" >  T  T  T </v>
   <v type="logical" >  F  F  F </v>
   <v type="logical" >  F  F  F </v>
   <v type="logical" >  T  T  T </v>
   <v type="logical" >  T  T  T </v>
   <v type="logical" >  F  F  F </v>
   <v type="logical" >  T  T  T </v>
   <v type="logical" >  T  T  T </v>
   <v type="logical" >  F  F  F </v>
   <v type="logical" >  F  F  F </v>
   <v type="logical" >  T  T  T </v>
   <v type="logical" >  T  T  T </v>
   <v type="logical" >  F  F  F </v>
   <v type="logical" >  T  T  T </v>
   <v type="logical" >  T  T  T </v>
   <v type="logical" >  F  F  F </v>
   <v type="logical" >  T  T  T </v>
   <v type="logical" >  T  T  T </v>
   <v type="logical" >  T  T  T </v>
   <v type="logical" >  T  T  T </v>
   <v type="logical" >  T  T  T </v>
   <v type="logical" >  T  T  T </v>
  </varray>
  <nose>
   <v>      -3.00000000       0.00000000       0.00010000       0.00010000 </v>
  </nose>
 </structure>
 <calculation>
  <scstep>
   <time name="dav">   21.17   21.22</time>
   <time name="total">   22.66   22.72</time>
   <energy>
    <i name="alphaZ">   1646.47971768 </i>
    <i name="ewald"> 127449.23405342 </i>
    <i name="hartreedc">-176478.01346419 </i>
    <i name="XCdc">   1735.31623723 </i>
    <i name="pawpsdc">  43004.07676644 </i>
    <i name="pawaedc"> -42332.39009753 </i>
    <i name="eentropy">     -0.03386417 </i>
    <i name="bandstr">   2593.04136236 </i>
    <i name="atom">  52924.17385108 </i>
    <i name="e_fr_energy">  10541.88456231 </i>
    <i name="e_wo_entrp">  10541.91842648 </i>
    <i name="e_0_energy">  10541.90149439 </i>
   </energy>
  </scstep>
  <scstep>
   <time name="dav">   23.47   23.49</time>
   <time name="total">   23.47   23.49</time>
   <energy>
    <i name="e_fr_energy">   2725.42365243 </i>
    <i name="e_wo_entrp">   2725.58846088 </i>
    <i name="e_0_energy">   2725.50605665 </i>
   </energy>
  </scstep>
  <scstep>
   <time name="dav">   27.11   27.13</time>
   <time name="total">   27.11   27.13</time>
   <energy>
    <i name="e_fr_energy">   -420.46828379 </i>
    <i name="e_wo_entrp">   -420.43073049 </i>
    <i name="e_0_energy">   -420.44950714 </i>
   </energy>
  </scstep>
  <scstep>
   <time name="dav">   28.99   29.00</time>
   <time name="total">   28.99   29.01</time>
   <energy>
    <i name="e_fr_energy">   -827.11610375 </i>
    <i name="e_wo_entrp">   -827.10393436 </i>
    <i name="e_0_energy">   -827.11001905 </i>
   </energy>
  </scstep>
  <scstep>
   <time name="dav">   33.87   33.89</time>
   <time name="total">   35.43   35.46</time>
   <energy>
    <i name="e_fr_energy">   -846.21392375 </i>
    <i name="e_wo_entrp">   -846.21383803 </i>
    <i name="e_0_energy">   -846.21388089 </i>
   </energy>
  </scstep>
  <scstep>
   <time name="dav">   32.92   32.93</time>
   <time name="total">   36.05   36.06</time>
   <energy>
    <i name="e_fr_energy">  -1471.10456924 </i>
    <i name="e_wo_entrp">  -1470.93230544 </i>
    <i name="e_0_energy">  -1471.01843734 </i>
   </energy>
  </scstep>
  <scstep>
   <time name="dav">   31.35   31.36</time>
   <time name="total">   34.45   34.46</time>
   <energy>
    <i name="e_fr_energy">   -812.94851836 </i>
    <i name="e_wo_entrp">   -812.73243350 </i>
    <i name="e_0_energy">   -812.84047593 </i>
   </energy>
  </scstep>
  <scstep>
   <time name="dav">   31.86   31.87</time>
   <time name="total">   34.97   34.99</time>
   <energy>
    <i name="e_fr_energy">   -726.47920605 </i>
    <i name="e_wo_entrp">   -726.20194988 </i>
    <i name="e_0_energy">   -726.34057797 </i>
   </energy>
  </scstep>
  <scstep>
   <time name="dav">   33.53   33.55</time>
   <time name="total">   36.63   36.65</time>
   <energy>
    <i name="e_fr_energy">   -972.68706731 </i>
    <i name="e_wo_entrp">   -972.59000181 </i>
    <i name="e_0_energy">   -972.63853456 </i>
   </energy>
  </scstep>
  <scstep>
   <time name="dav">   33.83   33.85</time>
   <time name="total">   36.91   36.93</time>
   <energy>
    <i name="e_fr_energy">  -1076.57001329 </i>
    <i name="e_wo_entrp">  -1076.50045552 </i>
    <i name="e_0_energy">  -1076.53523440 </i>
   </energy>
  </scstep>
  <scstep>
   <time name="dav">   31.05   31.07</time>
   <time name="total">   34.16   34.18</time>
   <energy>
    <i name="e_fr_energy">   -901.21558612 </i>
    <i name="e_wo_entrp">   -901.12465677 </i>
    <i name="e_0_energy">   -901.17012145 </i>
   </energy>
  </scstep>
  <scstep>
   <time name="dav">   30.07   30.09</time>
   <time name="total">   33.12   33.14</time>
   <energy>
    <i name="e_fr_energy">   -766.44618650 </i>
    <i name="e_wo_entrp">   -766.42500845 </i>
    <i name="e_0_energy">   -766.43559748 </i>
   </energy>
  </scstep>
  <scstep>
   <time name="dav">   31.13   31.15</time>
   <time name="total">   34.23   34.25</time>
   <energy>
    <i name="e_fr_energy">   -711.60081170 </i>
    <i name="e_wo_entrp">   -711.51591296 </i>
    <i name="e_0_energy">   -711.55836233 </i>
   </energy>
  </scstep>
  <scstep>
   <time name="dav">   33.84   33.86</time>
   <time name="total">   36.89   36.91</time>
   <energy>
    <i name="e_fr_energy">   -684.24338548 </i>
    <i name="e_wo_entrp">   -684.21440684 </i>
    <i name="e_0_energy">   -684.22889616 </i>
   </energy>
  </scstep>
  <scstep>
   <time name="dav">   30.45   30.47</time>
   <time name="total">   33.55   33.57</time>
   <energy>
    <i name="e_fr_energy">   -604.20628083 </i>
    <i name="e_wo_entrp">   -604.08886366 </i>
    <i name="e_0_energy">   -604.14757225 </i>
   </energy>
  </scstep>
  <scstep>
   <time name="dav">   30.15   30.17</time>
   <time name="total">   33.23   33.25</time>
   <energy>
    <i name="e_fr_energy">   -604.78924493 </i>
    <i name="e_wo_entrp">   -604.68941523 </i>
    <i name="e_0_energy">   -604.73933008 </i>
   </energy>
  </scstep>
  <scstep>
   <time name="dav">   32.53   32.55</time>
   <time name="total">   35.60   35.62</time>
   <energy>
    <i name="e_fr_energy">   -610.19030832 </i>
    <i name="e_wo_entrp">   -610.08595839 </i>
    <i name="e_0_energy">   -610.13813336 </i>
   </energy>
  </scstep>
  <scstep>
   <time name="dav">   34.08   34.10</time>
   <time name="total">   37.08   37.10</time>
   <energy>
    <i name="e_fr_energy">   -606.44346802 </i>
    <i name="e_wo_entrp">   -606.32081753 </i>
    <i name="e_0_energy">   -606.38214277 </i>
   </energy>
  </scstep>
  <scstep>
   <time name="dav">   29.83   29.84</time>
   <time name="total">   32.81   32.82</time>
   <energy>
    <i name="e_fr_energy">   -606.20314792 </i>
    <i name="e_wo_entrp">   -606.12333835 </i>
    <i name="e_0_energy">   -606.16324313 </i>
   </energy>
  </scstep>
  <scstep>
   <time name="dav">   31.75   31.77</time>
   <time name="total">   34.78   34.79</time>
   <energy>
    <i name="e_fr_energy">   -608.87655327 </i>
    <i name="e_wo_entrp">   -608.83163050 </i>
    <i name="e_0_energy">   -608.85409189 </i>
   </energy>
  </scstep>
  <scstep>
   <time name="dav">   31.05   31.06</time>
   <time name="total">   34.00   34.03</time>
   <energy>
    <i name="e_fr_energy">   -610.81695725 </i>
    <i name="e_wo_entrp">   -610.77468673 </i>
    <i name="e_0_energy">   -610.79582199 </i>
   </energy>
  </scstep>
  <scstep>
   <time name="dav">   31.35   31.37</time>
   <time name="total">   34.36   34.37</time>
   <energy>
    <i name="e_fr_energy">   -612.02937031 </i>
    <i name="e_wo_entrp">   -611.97417254 </i>
    <i name="e_0_energy">   -612.00177142 </i>
   </energy>
  </scstep>
  <scstep>
   <time name="dav">   30.60   30.62</time>
   <time name="total">   33.56   33.58</time>
   <energy>
    <i name="e_fr_energy">   -612.47219617 </i>
    <i name="e_wo_entrp">   -612.42302057 </i>
    <i name="e_0_energy">   -612.44760837 </i>
   </energy>
  </scstep>
  <scstep>
   <time name="dav">   26.83   26.84</time>
   <time name="total">   29.88   29.89</time>
   <energy>
    <i name="e_fr_energy">   -612.12688362 </i>
    <i name="e_wo_entrp">   -612.08121562 </i>
    <i name="e_0_energy">   -612.10404962 </i>
   </energy>
  </scstep>
  <scstep>
   <time name="dav">   28.87   28.88</time>
   <time name="total">   31.84   31.86</time>
   <energy>
    <i name="e_fr_energy">   -612.06615196 </i>
    <i name="e_wo_entrp">   -612.03760497 </i>
    <i name="e_0_energy">   -612.05187847 </i>
   </energy>
  </scstep>
  <scstep>
   <time name="dav">   27.55   27.56</time>
   <time name="total">   30.50   30.52</time>
   <energy>
    <i name="e_fr_energy">   -612.46769513 </i>
    <i name="e_wo_entrp">   -612.44061915 </i>
    <i name="e_0_energy">   -612.45415714 </i>
   </energy>
  </scstep>
  <scstep>
   <time name="dav">   27.70   27.72</time>
   <time name="total">   30.65   30.66</time>
   <energy>
    <i name="e_fr_energy">   -611.51287152 </i>
    <i name="e_wo_entrp">   -611.48445955 </i>
    <i name="e_0_energy">   -611.49866554 </i>
   </energy>
  </scstep>
  <scstep>
   <time name="dav">   27.58   27.60</time>
   <time name="total">   30.55   30.57</time>
   <energy>
    <i name="e_fr_energy">   -614.87832232 </i>
    <i name="e_wo_entrp">   -614.86474757 </i>
    <i name="e_0_energy">   -614.87153495 </i>
   </energy>
  </scstep>
  <scstep>
   <time name="dav">   29.61   29.63</time>
   <time name="total">   32.58   32.59</time>
   <energy>
    <i name="e_fr_energy">   -620.76873001 </i>
    <i name="e_wo_entrp">   -620.75176120 </i>
    <i name="e_0_energy">   -620.76024560 </i>
   </energy>
  </scstep>
  <scstep>
   <time name="dav">   27.87   27.88</time>
   <time name="total">   30.88   30.89</time>
   <energy>
    <i name="e_fr_energy">   -621.88326973 </i>
    <i name="e_wo_entrp">   -621.86779478 </i>
    <i name="e_0_energy">   -621.87553225 </i>
   </energy>
  </scstep>
  <scstep>
   <time name="dav">   28.66   28.68</time>
   <time name="total">   31.61   31.63</time>
   <energy>
    <i name="e_fr_energy">   -622.93574824 </i>
    <i name="e_wo_entrp">   -622.91953925 </i>
    <i name="e_0_energy">   -622.92764374 </i>
   </energy>
  </scstep>
  <scstep>
   <time name="dav">   27.98   27.99</time>
   <time name="total">   30.90   30.91</time>
   <energy>
    <i name="e_fr_energy">   -623.22380720 </i>
    <i name="e_wo_entrp">   -623.21702861 </i>
    <i name="e_0_energy">   -623.22041790 </i>
   </energy>
  </scstep>
  <scstep>
   <time name="dav">   28.72   28.74</time>
   <time name="total">   31.67   31.68</time>
   <energy>
    <i name="e_fr_energy">   -622.54912013 </i>
    <i name="e_wo_entrp">   -622.53358649 </i>
    <i name="e_0_energy">   -622.54135331 </i>
   </energy>
  </scstep>
  <scstep>
   <time name="dav">   29.08   29.10</time>
   <time name="total">   32.04   32.05</time>
   <energy>
    <i name="e_fr_energy">   -622.03265524 </i>
    <i name="e_wo_entrp">   -622.02642275 </i>
    <i name="e_0_energy">   -622.02953900 </i>
   </energy>
  </scstep>
  <scstep>
   <time name="dav">   31.90   31.92</time>
   <time name="total">   34.85   34.87</time>
   <energy>
    <i name="e_fr_energy">   -621.53408108 </i>
    <i name="e_wo_entrp">   -621.52443670 </i>
    <i name="e_0_energy">   -621.52925889 </i>
   </energy>
  </scstep>
  <scstep>
   <time name="dav">   30.56   30.58</time>
   <time name="total">   33.51   33.53</time>
   <energy>
    <i name="e_fr_energy">   -621.29806566 </i>
    <i name="e_wo_entrp">   -621.28600023 </i>
    <i name="e_0_energy">   -621.29203294 </i>
   </energy>
  </scstep>
  <scstep>
   <time name="dav">   30.31   30.32</time>
   <time name="total">   33.26   33.28</time>
   <energy>
    <i name="e_fr_energy">   -620.93735927 </i>
    <i name="e_wo_entrp">   -620.93612367 </i>
    <i name="e_0_energy">   -620.93674147 </i>
   </energy>
  </scstep>
  <scstep>
   <time name="dav">   29.76   29.78</time>
   <time name="total">   32.70   32.72</time>
   <energy>
    <i name="e_fr_energy">   -621.32271000 </i>
    <i name="e_wo_entrp">   -621.32266559 </i>
    <i name="e_0_energy">   -621.32268779 </i>
   </energy>
  </scstep>
  <scstep>
   <time name="dav">   30.33   30.35</time>
   <time name="total">   33.25   33.27</time>
   <energy>
    <i name="e_fr_energy">   -620.81096720 </i>
    <i name="e_wo_entrp">   -620.81096584 </i>
    <i name="e_0_energy">   -620.81096652 </i>
   </energy>
  </scstep>
  <scstep>
   <time name="dav">   32.08   32.10</time>
   <time name="total">   35.06   35.08</time>
   <energy>
    <i name="e_fr_energy">   -620.64437895 </i>
    <i name="e_wo_entrp">   -620.64437683 </i>
    <i name="e_0_energy">   -620.64437789 </i>
   </energy>
  </scstep>
  <scstep>
   <time name="dav">   31.35   31.36</time>
   <time name="total">   34.28   34.30</time>
   <energy>
    <i name="e_fr_energy">   -619.97550106 </i>
    <i name="e_wo_entrp">   -619.97550097 </i>
    <i name="e_0_energy">   -619.97550101 </i>
   </energy>
  </scstep>
  <scstep>
   <time name="dav">   32.24   32.26</time>
   <time name="total">   35.19   35.21</time>
   <energy>
    <i name="e_fr_energy">   -619.75922407 </i>
    <i name="e_wo_entrp">   -619.75922404 </i>
    <i name="e_0_energy">   -619.75922406 </i>
   </energy>
  </scstep>
  <scstep>
   <time name="dav">   29.96   29.98</time>
   <time name="total">   32.92   32.94</time>
   <energy>
    <i name="e_fr_energy">   -619.22607364 </i>
    <i name="e_wo_entrp">   -619.22607363 </i>
    <i name="e_0_energy">   -619.22607364 </i>
   </energy>
  </scstep>
  <scstep>
   <time name="dav">   31.07   31.09</time>
   <time name="total">   34.00   34.02</time>
   <energy>
    <i name="e_fr_energy">   -618.84094286 </i>
    <i name="e_wo_entrp">   -618.84094286 </i>
    <i name="e_0_energy">   -618.84094286 </i>
   </energy>
  </scstep>
  <scstep>
   <time name="dav">   33.21   33.22</time>
   <time name="total">   36.15   36.17</time>
   <energy>
    <i name="e_fr_energy">   -618.77710033 </i>
    <i name="e_wo_entrp">   -618.77710033 </i>
    <i name="e_0_energy">   -618.77710033 </i>
   </energy>
  </scstep>
  <scstep>
   <time name="dav">   32.07   32.09</time>
   <time name="total">   35.00   35.02</time>
   <energy>
    <i name="e_fr_energy">   -619.04759943 </i>
    <i name="e_wo_entrp">   -619.04759943 </i>
    <i name="e_0_energy">   -619.04759943 </i>
   </energy>
  </scstep>
  <scstep>
   <time name="dav">   33.45   33.47</time>
   <time name="total">   36.41   36.43</time>
   <energy>
    <i name="e_fr_energy">   -618.94842748 </i>
    <i name="e_wo_entrp">   -618.94842748 </i>
    <i name="e_0_energy">   -618.94842748 </i>
   </energy>
  </scstep>
  <scstep>
   <time name="dav">   32.86   32.88</time>
   <time name="total">   35.81   35.83</time>
   <energy>
    <i name="e_fr_energy">   -618.97390562 </i>
    <i name="e_wo_entrp">   -618.97390560 </i>
    <i name="e_0_energy">   -618.97390561 </i>
   </energy>
  </scstep>
  <scstep>
   <time name="dav">   33.82   33.84</time>
   <time name="total">   36.76   36.78</time>
   <energy>
    <i name="e_fr_energy">   -618.93011449 </i>
    <i name="e_wo_entrp">   -618.93011449 </i>
    <i name="e_0_energy">   -618.93011449 </i>
   </energy>
  </scstep>
  <scstep>
   <time name="dav">   31.99   32.01</time>
   <time name="total">   34.94   34.96</time>
   <energy>
    <i name="e_fr_energy">   -618.94185392 </i>
    <i name="e_wo_entrp">   -618.94185392 </i>
    <i name="e_0_energy">   -618.94185392 </i>
   </energy>
  </scstep>
  <scstep>
   <time name="dav">   33.02   33.04</time>
   <time name="total">   35.97   35.99</time>
   <energy>
    <i name="e_fr_energy">   -618.51407055 </i>
    <i name="e_wo_entrp">   -618.51407054 </i>
    <i name="e_0_energy">   -618.51407054 </i>
   </energy>
  </scstep>
  <scstep>
   <time name="dav">   31.73   31.74</time>
   <time name="total">   34.69   34.71</time>
   <energy>
    <i name="e_fr_energy">   -618.58741966 </i>
    <i name="e_wo_entrp">   -618.58741966 </i>
    <i name="e_0_energy">   -618.58741966 </i>
   </energy>
  </scstep>
  <scstep>
   <time name="dav">   32.68   32.69</time>
   <time name="total">   35.63   35.65</time>
   <energy>
    <i name="e_fr_energy">   -618.49491100 </i>
    <i name="e_wo_entrp">   -618.49491100 </i>
    <i name="e_0_energy">   -618.49491100 </i>
   </energy>
  </scstep>
  <scstep>
   <time name="dav">   32.86   32.87</time>
   <time name="total">   35.81   35.83</time>
   <energy>
    <i name="e_fr_energy">   -618.45008200 </i>
    <i name="e_wo_entrp">   -618.45008200 </i>
    <i name="e_0_energy">   -618.45008200 </i>
   </energy>
  </scstep>
  <scstep>
   <time name="dav">   32.22   32.24</time>
   <time name="total">   35.18   35.20</time>
   <energy>
    <i name="e_fr_energy">   -618.47553423 </i>
    <i name="e_wo_entrp">   -618.47553423 </i>
    <i name="e_0_energy">   -618.47553423 </i>
   </energy>
  </scstep>
  <scstep>
   <time name="dav">   34.06   34.07</time>
   <time name="total">   36.98   37.00</time>
   <energy>
    <i name="e_fr_energy">   -618.49807360 </i>
    <i name="e_wo_entrp">   -618.49807352 </i>
    <i name="e_0_energy">   -618.49807356 </i>
   </energy>
  </scstep>
  <scstep>
   <time name="dav">   29.45   29.47</time>
   <time name="total">   32.37   32.39</time>
   <energy>
    <i name="e_fr_energy">   -618.46528671 </i>
    <i name="e_wo_entrp">   -618.46528667 </i>
    <i name="e_0_energy">   -618.46528669 </i>
   </energy>
  </scstep>
  <scstep>
   <time name="dav">   31.08   31.10</time>
   <time name="total">   34.01   34.03</time>
   <energy>
    <i name="e_fr_energy">   -618.44185032 </i>
    <i name="e_wo_entrp">   -618.44184976 </i>
    <i name="e_0_energy">   -618.44185004 </i>
   </energy>
  </scstep>
  <scstep>
   <time name="dav">   31.67   31.68</time>
   <time name="total">   34.60   34.62</time>
   <energy>
    <i name="e_fr_energy">   -618.44035107 </i>
    <i name="e_wo_entrp">   -618.44034361 </i>
    <i name="e_0_energy">   -618.44034734 </i>
   </energy>
  </scstep>
  <scstep>
   <time name="dav">   31.19   31.21</time>
   <time name="total">   34.11   34.13</time>
   <energy>
    <i name="e_fr_energy">   -618.44170917 </i>
    <i name="e_wo_entrp">   -618.44152022 </i>
    <i name="e_0_energy">   -618.44161469 </i>
   </energy>
  </scstep>
  <scstep>
   <time name="dav">   32.72   32.74</time>
   <time name="total">   35.68   35.69</time>
   <energy>
    <i name="e_fr_energy">   -618.46449565 </i>
    <i name="e_wo_entrp">   -618.43792812 </i>
    <i name="e_0_energy">   -618.45121189 </i>
   </energy>
  </scstep>
  <scstep>
   <time name="dav">   28.66   28.67</time>
   <time name="total">   31.57   31.59</time>
   <energy>
    <i name="e_fr_energy">   -618.46079088 </i>
    <i name="e_wo_entrp">   -618.44835160 </i>
    <i name="e_0_energy">   -618.45457124 </i>
   </energy>
  </scstep>
  <scstep>
   <time name="dav">   29.12   29.14</time>
   <time name="total">   32.08   32.09</time>
   <energy>
    <i name="e_fr_energy">   -618.45902067 </i>
    <i name="e_wo_entrp">   -618.44316301 </i>
    <i name="e_0_energy">   -618.45109184 </i>
   </energy>
  </scstep>
  <scstep>
   <time name="dav">   33.49   33.51</time>
   <time name="total">   36.44   36.46</time>
   <energy>
    <i name="e_fr_energy">   -618.45888089 </i>
    <i name="e_wo_entrp">   -618.44269474 </i>
    <i name="e_0_energy">   -618.45078781 </i>
   </energy>
  </scstep>
  <scstep>
   <time name="dav">   32.45   32.47</time>
   <time name="total">   35.42   35.44</time>
   <energy>
    <i name="e_fr_energy">   -618.45677976 </i>
    <i name="e_wo_entrp">   -618.43936339 </i>
    <i name="e_0_energy">   -618.44807157 </i>
   </energy>
  </scstep>
  <scstep>
   <time name="dav">   29.38   29.40</time>
   <time name="total">   32.34   32.36</time>
   <energy>
    <i name="e_fr_energy">   -618.44440644 </i>
    <i name="e_wo_entrp">   -618.43094503 </i>
    <i name="e_0_energy">   -618.43767574 </i>
   </energy>
  </scstep>
  <scstep>
   <time name="dav">   27.33   27.35</time>
   <time name="total">   30.25   30.27</time>
   <energy>
    <i name="e_fr_energy">   -618.45014879 </i>
    <i name="e_wo_entrp">   -618.43273434 </i>
    <i name="e_0_energy">   -618.44144157 </i>
   </energy>
  </scstep>
  <scstep>
   <time name="dav">   29.02   29.04</time>
   <time name="total">   31.98   32.00</time>
   <energy>
    <i name="e_fr_energy">   -618.45251320 </i>
    <i name="e_wo_entrp">   -618.43535166 </i>
    <i name="e_0_energy">   -618.44393243 </i>
   </energy>
  </scstep>
  <scstep>
   <time name="dav">   29.07   29.09</time>
   <time name="total">   32.06   32.08</time>
   <energy>
    <i name="e_fr_energy">   -618.46339224 </i>
    <i name="e_wo_entrp">   -618.44539235 </i>
    <i name="e_0_energy">   -618.45439230 </i>
   </energy>
  </scstep>
  <scstep>
   <time name="dav">   29.76   29.77</time>
   <time name="total">   32.73   32.75</time>
   <energy>
    <i name="e_fr_energy">   -618.47618945 </i>
    <i name="e_wo_entrp">   -618.45935659 </i>
    <i name="e_0_energy">   -618.46777302 </i>
   </energy>
  </scstep>
  <scstep>
   <time name="dav">   30.95   30.96</time>
   <time name="total">   33.88   33.90</time>
   <energy>
    <i name="e_fr_energy">   -618.48486148 </i>
    <i name="e_wo_entrp">   -618.46930158 </i>
    <i name="e_0_energy">   -618.47708153 </i>
   </energy>
  </scstep>
  <scstep>
   <time name="dav">   29.67   29.69</time>
   <time name="total">   32.61   32.62</time>
   <energy>
    <i name="e_fr_energy">   -618.48857675 </i>
    <i name="e_wo_entrp">   -618.47368244 </i>
    <i name="e_0_energy">   -618.48112960 </i>
   </energy>
  </scstep>
  <scstep>
   <time name="dav">   29.38   29.40</time>
   <time name="total">   32.35   32.37</time>
   <energy>
    <i name="e_fr_energy">   -618.49203946 </i>
    <i name="e_wo_entrp">   -618.47716301 </i>
    <i name="e_0_energy">   -618.48460123 </i>
   </energy>
  </scstep>
  <scstep>
   <time name="dav">   29.16   29.17</time>
   <time name="total">   32.12   32.14</time>
   <energy>
    <i name="e_fr_energy">   -618.49539578 </i>
    <i name="e_wo_entrp">   -618.48002978 </i>
    <i name="e_0_energy">   -618.48771278 </i>
   </energy>
  </scstep>
  <scstep>
   <time name="dav">   28.51   28.53</time>
   <time name="total">   31.44   31.45</time>
   <energy>
    <i name="e_fr_energy">   -618.49605512 </i>
    <i name="e_wo_entrp">   -618.48064816 </i>
    <i name="e_0_energy">   -618.48835164 </i>
   </energy>
  </scstep>
  <scstep>
   <time name="dav">   31.45   31.47</time>
   <time name="total">   34.40   34.42</time>
   <energy>
    <i name="e_fr_energy">   -618.49608615 </i>
    <i name="e_wo_entrp">   -618.48172738 </i>
    <i name="e_0_energy">   -618.48890677 </i>
   </energy>
  </scstep>
  <scstep>
   <time name="dav">   26.63   26.64</time>
   <time name="total">   29.61   29.62</time>
   <energy>
    <i name="e_fr_energy">   -618.50128141 </i>
    <i name="e_wo_entrp">   -618.48664689 </i>
    <i name="e_0_energy">   -618.49396415 </i>
   </energy>
  </scstep>
  <scstep>
   <time name="dav">   30.97   30.99</time>
   <time name="total">   33.92   33.93</time>
   <energy>
    <i name="e_fr_energy">   -618.50476039 </i>
    <i name="e_wo_entrp">   -618.48993500 </i>
    <i name="e_0_energy">   -618.49734769 </i>
   </energy>
  </scstep>
  <scstep>
   <time name="dav">   28.51   28.53</time>
   <time name="total">   31.50   31.52</time>
   <energy>
    <i name="e_fr_energy">   -618.50968772 </i>
    <i name="e_wo_entrp">   -618.49519212 </i>
    <i name="e_0_energy">   -618.50243992 </i>
   </energy>
  </scstep>
  <scstep>
   <time name="dav">   29.12   29.14</time>
   <time name="total">   32.08   32.10</time>
   <energy>
    <i name="e_fr_energy">   -618.51512667 </i>
    <i name="e_wo_entrp">   -618.49998579 </i>
    <i name="e_0_energy">   -618.50755623 </i>
   </energy>
  </scstep>
  <scstep>
   <time name="dav">   29.49   29.50</time>
   <time name="total">   32.44   32.45</time>
   <energy>
    <i name="e_fr_energy">   -618.51660463 </i>
    <i name="e_wo_entrp">   -618.50013702 </i>
    <i name="e_0_energy">   -618.50837083 </i>
   </energy>
  </scstep>
  <scstep>
   <time name="dav">   28.43   28.45</time>
   <time name="total">   31.37   31.39</time>
   <energy>
    <i name="e_fr_energy">   -618.51723386 </i>
    <i name="e_wo_entrp">   -618.50114892 </i>
    <i name="e_0_energy">   -618.50919139 </i>
   </energy>
  </scstep>
  <scstep>
   <time name="dav">   32.28   32.30</time>
   <time name="total">   35.25   35.27</time>
   <energy>
    <i name="e_fr_energy">   -618.51736470 </i>
    <i name="e_wo_entrp">   -618.50153948 </i>
    <i name="e_0_energy">   -618.50945209 </i>
   </energy>
  </scstep>
  <scstep>
   <time name="dav">   29.25   29.27</time>
   <time name="total">   32.21   32.23</time>
   <energy>
    <i name="e_fr_energy">   -618.51735806 </i>
    <i name="e_wo_entrp">   -618.50127195 </i>
    <i name="e_0_energy">   -618.50931501 </i>
   </energy>
  </scstep>
  <scstep>
   <time name="dav">   29.56   29.58</time>
   <time name="total">   32.53   32.55</time>
   <energy>
    <i name="e_fr_energy">   -618.51727175 </i>
    <i name="e_wo_entrp">   -618.50103919 </i>
    <i name="e_0_energy">   -618.50915547 </i>
   </energy>
  </scstep>
  <scstep>
   <time name="dav">   30.03   30.04</time>
   <time name="total">   32.97   32.99</time>
   <energy>
    <i name="e_fr_energy">   -618.51736215 </i>
    <i name="e_wo_entrp">   -618.50113270 </i>
    <i name="e_0_energy">   -618.50924742 </i>
   </energy>
  </scstep>
  <scstep>
   <time name="dav">   28.19   28.20</time>
   <time name="total">   31.13   31.15</time>
   <energy>
    <i name="e_fr_energy">   -618.51738197 </i>
    <i name="e_wo_entrp">   -618.50125306 </i>
    <i name="e_0_energy">   -618.50931751 </i>
   </energy>
  </scstep>
  <scstep>
   <time name="dav">   27.90   27.91</time>
   <time name="total">   30.83   30.84</time>
   <energy>
    <i name="e_fr_energy">   -618.51740201 </i>
    <i name="e_wo_entrp">   -618.50137522 </i>
    <i name="e_0_energy">   -618.50938862 </i>
   </energy>
  </scstep>
  <scstep>
   <time name="dav">   23.31   23.32</time>
   <time name="total">   26.28   26.29</time>
   <energy>
    <i name="e_fr_energy">   -618.51741351 </i>
    <i name="e_wo_entrp">   -618.50137474 </i>
    <i name="e_0_energy">   -618.50939413 </i>
   </energy>
  </scstep>
  <scstep>
   <time name="dav">   19.77   19.78</time>
   <time name="total">   21.22   21.23</time>
   <energy>
    <i name="alphaZ">   1646.47971768 </i>
    <i name="ewald"> 127449.23405342 </i>
    <i name="hartreedc">-177743.22159217 </i>
    <i name="XCdc">   1789.34515831 </i>
    <i name="pawpsdc">  49576.68062577 </i>
    <i name="pawaedc"> -48858.81676334 </i>
    <i name="eentropy">     -0.01606555 </i>
    <i name="bandstr">  -7402.37640713 </i>
    <i name="atom">  52924.17385108 </i>
    <i name="e_fr_energy">   -618.51742193 </i>
    <i name="e_wo_entrp">   -618.50135638 </i>
    <i name="e_0_energy">   -618.50938916 </i>
   </energy>
  </scstep>
  <structure>
   <crystal>
    <varray name="basis" >
     <v>      11.59820000       0.00000000       0.00000000 </v>
     <v>      -5.79910000      10.04433584       0.00000000 </v>
     <v>       0.00000000       0.00000000      21.04820000 </v>
    </varray>
    <i name="volume">   2452.03565189 </i>
    <varray name="rec_basis" >
     <v>       0.08622028       0.04977930       0.00000000 </v>
     <v>       0.00000000       0.09955860       0.00000000 </v>
     <v>       0.00000000       0.00000000       0.04751000 </v>
    </varray>
   </crystal>
   <varray name="positions" >
    <v>       0.00000000       0.00000000       0.45993000 </v>
    <v>       0.22222000       0.11111000       0.30996000 </v>
    <v>       0.11111000       0.22222000       0.15999000 </v>
    <v>       0.55556000       0.11111000       0.30996000 </v>
    <v>       0.44444000       0.22222000       0.15999000 </v>
    <v>       0.88889000       0.11111000       0.30996000 </v>
    <v>       0.77778000       0.22222000       0.15999000 </v>
    <v>       0.00000000       0.33333000       0.45993000 </v>
    <v>       0.22222000       0.44444000       0.30996000 </v>
    <v>       0.11111000       0.55556000       0.15999000 </v>
    <v>       0.55556000       0.44444000       0.30996000 </v>
    <v>       0.44444000       0.55556000       0.15999000 </v>
    <v>       0.88889000       0.44444000       0.30996000 </v>
    <v>       0.77778000       0.55556000       0.15999000 </v>
    <v>       0.00000000       0.66667000       0.45993000 </v>
    <v>       0.22222000       0.77778000       0.30996000 </v>
    <v>       0.11111000       0.88889000       0.15999000 </v>
    <v>       0.55556000       0.77778000       0.30996000 </v>
    <v>       0.44444000       0.88889000       0.15999000 </v>
    <v>       0.88889000       0.77778000       0.30996000 </v>
    <v>       0.77778000       0.88889000       0.15999000 </v>
    <v>       0.00000000       0.00000000       0.12250000 </v>
    <v>       0.11111000       0.22222000       0.27247000 </v>
    <v>       0.22222000       0.11111000       0.42244000 </v>
    <v>       0.11111000       0.22222000       0.04751000 </v>
    <v>       0.11111000       0.22222000       0.49742000 </v>
    <v>       0.00000000       0.00000000       0.34745000 </v>
    <v>       0.22222000       0.11111000       0.19748000 </v>
    <v>       0.33333000       0.00000000       0.12250000 </v>
    <v>       0.44444000       0.22222000       0.27247000 </v>
    <v>       0.55556000       0.11111000       0.42244000 </v>
    <v>       0.44444000       0.22222000       0.04751000 </v>
    <v>       0.44444000       0.22222000       0.49742000 </v>
    <v>       0.33333000       0.00000000       0.34745000 </v>
    <v>       0.55556000       0.11111000       0.19748000 </v>
    <v>       0.66667000       0.00000000       0.12250000 </v>
    <v>       0.77778000       0.22222000       0.27247000 </v>
    <v>       0.88889000       0.11111000       0.42244000 </v>
    <v>       0.77778000       0.22222000       0.04751000 </v>
    <v>       0.77778000       0.22222000       0.49742000 </v>
    <v>       0.66667000       0.00000000       0.34745000 </v>
    <v>       0.88889000       0.11111000       0.19748000 </v>
    <v>       0.00000000       0.33333000       0.12250000 </v>
    <v>       0.11111000       0.55556000       0.27247000 </v>
    <v>       0.22222000       0.44444000       0.42244000 </v>
    <v>       0.11111000       0.55556000       0.04751000 </v>
    <v>       0.11111000       0.55556000       0.49742000 </v>
    <v>       0.00000000       0.33333000       0.34745000 </v>
    <v>       0.22222000       0.44444000       0.19748000 </v>
    <v>       0.33333000       0.33333000       0.12250000 </v>
    <v>       0.44444000       0.55556000       0.27247000 </v>
    <v>       0.55556000       0.44444000       0.42244000 </v>
    <v>       0.44444000       0.55556000       0.04751000 </v>
    <v>       0.44444000       0.55556000       0.49742000 </v>
    <v>       0.33333000       0.33333000       0.34745000 </v>
    <v>       0.55556000       0.44444000       0.19748000 </v>
    <v>       0.66667000       0.33333000       0.12250000 </v>
    <v>       0.77778000       0.55556000       0.27247000 </v>
    <v>       0.88889000       0.44444000       0.42244000 </v>
    <v>       0.77778000       0.55556000       0.04751000 </v>
    <v>       0.77778000       0.55556000       0.49742000 </v>
    <v>       0.66667000       0.33333000       0.34745000 </v>
    <v>       0.88889000       0.44444000       0.19748000 </v>
    <v>       0.00000000       0.66667000       0.12250000 </v>
    <v>       0.11111000       0.88889000       0.27247000 </v>
    <v>       0.22222000       0.77778000       0.42244000 </v>
    <v>       0.11111000       0.88889000       0.04751000 </v>
    <v>       0.11111000       0.88889000       0.49742000 </v>
    <v>       0.00000000       0.66667000       0.34745000 </v>
    <v>       0.22222000       0.77778000       0.19748000 </v>
    <v>       0.33333000       0.66667000       0.12250000 </v>
    <v>       0.44444000       0.88889000       0.27247000 </v>
    <v>       0.55556000       0.77778000       0.42244000 </v>
    <v>       0.44444000       0.88889000       0.04751000 </v>
    <v>       0.44444000       0.88889000       0.49742000 </v>
    <v>       0.33333000       0.66667000       0.34745000 </v>
    <v>       0.55556000       0.77778000       0.19748000 </v>
    <v>       0.66667000       0.66667000       0.12250000 </v>
    <v>       0.77778000       0.88889000       0.27247000 </v>
    <v>       0.88889000       0.77778000       0.42244000 </v>
    <v>       0.77778000       0.88889000       0.04751000 </v>
    <v>       0.77778000       0.88889000       0.49742000 </v>
    <v>       0.66667000       0.66667000       0.34745000 </v>
    <v>       0.88889000       0.77778000       0.19748000 </v>
    <v>       0.33333000       0.00000000       0.45993000 </v>
    <v>       0.66667000       0.00000000       0.45993000 </v>
    <v>       0.33333000       0.33333000       0.45993000 </v>
    <v>       0.66667000       0.33333000       0.45993000 </v>
    <v>       0.33333000       0.66667000       0.45993000 </v>
    <v>       0.66667000       0.66667000       0.45993000 </v>
   </varray>
  </structure>
  <varray name="forces" >
   <v>       0.09563297       0.05510884       0.23810356 </v>
   <v>       0.28800213       0.16863452      -0.09100815 </v>
   <v>       0.02800585       0.00709182      -0.16821304 </v>
   <v>      -0.01805453      -0.01024282      -0.02898380 </v>
   <v>      -0.09569150       0.04866798      -0.16326164 </v>
   <v>      -0.25035791      -0.14904942      -0.10526200 </v>
   <v>       0.04150004       0.02417978      -0.15485964 </v>
   <v>       0.09571752       0.05576274       0.23872203 </v>
   <v>       0.29473513       0.17092175      -0.10088162 </v>
   <v>       0.02008456       0.02026030      -0.16852330 </v>
   <v>      -0.02060057      -0.00577173      -0.04509452 </v>
   <v>      -0.08343323      -0.04911958      -0.16814536 </v>
   <v>      -0.25441213      -0.14163673      -0.10516050 </v>
   <v>       0.06809374       0.06015037      -0.18192505 </v>
   <v>       0.09569181       0.05475963       0.23794871 </v>
   <v>       0.29009665       0.16475623      -0.09081790 </v>
   <v>      -0.08398464      -0.04851402      -0.19753633 </v>
   <v>      -0.01595597      -0.01435941      -0.04494409 </v>
   <v>      -0.00565102      -0.10736420      -0.16296545 </v>
   <v>      -0.25482339      -0.14743551      -0.11762928 </v>
   <v>       0.08645380       0.02847029      -0.18201841 </v>
   <v>      -0.01662536      -0.02441544      -0.17471815 </v>
   <v>      -0.00925749      -0.00798982       0.09619025 </v>
   <v>       1.35448012       0.78188222       1.19160167 </v>
   <v>      -0.02833782       0.03137608      -0.14535810 </v>
   <v>       1.10253963       0.63663522      -0.60430570 </v>
   <v>       0.11259298       0.06610330       0.53259590 </v>
   <v>       0.01626067      -0.00657917       0.08952134 </v>
   <v>       0.00428046       0.00241510      -0.22960718 </v>
   <v>      -0.01107874      -0.01175133      -0.00874102 </v>
   <v>       0.00250249       0.00164298       1.93343094 </v>
   <v>       0.01725973       0.00128608      -0.06333674 </v>
   <v>       0.03714647       0.02124711      -1.08327596 </v>
   <v>      -0.00819840      -0.00473022       0.40641235 </v>
   <v>       0.01520496       0.00905223       0.04511127 </v>
   <v>      -0.00230831       0.02341834      -0.23200089 </v>
   <v>       0.02185539       0.01271874       0.03339362 </v>
   <v>      -1.08983813      -0.62908294       0.68442075 </v>
   <v>      -0.06193259      -0.03568791      -0.08474210 </v>
   <v>      -1.40840862      -0.81316163      -0.74637912 </v>
   <v>      -0.04334039      -0.02282798       0.36477635 </v>
   <v>      -0.02988074       0.00124178       0.10986070 </v>
   <v>       0.02553941       0.01508187      -0.18506240 </v>
   <v>      -0.01135922      -0.00444097       0.09605792 </v>
   <v>       1.35409988       0.78182771       1.19217527 </v>
   <v>       0.01289901      -0.04012180      -0.14487944 </v>
   <v>       1.10275784       0.63639744      -0.60450591 </v>
   <v>       0.11113951       0.06437194       0.53153715 </v>
   <v>      -0.00683652      -0.00333370       0.09698673 </v>
   <v>       0.01653369       0.00922711      -0.18109078 </v>
   <v>      -0.01238390      -0.00807243       0.00224588 </v>
   <v>       0.00246538       0.00155883       1.93471992 </v>
   <v>       0.03176035       0.01826193      -0.07726860 </v>
   <v>       0.03735871       0.02140469      -1.08340468 </v>
   <v>      -0.00891526      -0.00667076       0.40792082 </v>
   <v>       0.04028924       0.01301880       0.05763814 </v>
   <v>       0.01909819      -0.01332107      -0.23196122 </v>
   <v>       0.02608337       0.01020407       0.04320089 </v>
   <v>      -1.08982283      -0.62898283       0.68437097 </v>
   <v>      -0.01978876       0.00787048      -0.06040617 </v>
   <v>      -1.40830494      -0.81317105      -0.74634332 </v>
   <v>      -0.04151784      -0.02585631       0.36454508 </v>
   <v>      -0.01411418      -0.02603827       0.10975701 </v>
   <v>      -0.02937096      -0.00257859      -0.17449184 </v>
   <v>      -0.00589240      -0.00335103       0.09730383 </v>
   <v>       1.35433355       0.78204481       1.19161559 </v>
   <v>      -0.00685940      -0.00387204      -0.07638459 </v>
   <v>       1.10297818       0.63681518      -0.60438060 </v>
   <v>       0.11352309       0.06409116       0.53265838 </v>
   <v>       0.00246092       0.01720538       0.08937182 </v>
   <v>       0.01597556       0.00953659      -0.18096872 </v>
   <v>      -0.01554647      -0.00408091      -0.00887337 </v>
   <v>       0.00260809       0.00178337       1.93490050 </v>
   <v>       0.00969331       0.01439056      -0.06350770 </v>
[...]
   <energy>
    <i name="e_fr_energy">   -625.82331651 </i>
    <i name="e_wo_entrp">   -625.76521461 </i>
    <i name="e_0_energy">   -625.79426556 </i>
   </energy>
  </scstep>
  <scstep>
   <time name="dav">   34.38   34.40</time>
   <time name="total">   36.93   36.95</time>
   <energy>
    <i name="e_fr_energy">   -625.82333276 </i>
    <i name="e_wo_entrp">   -625.76529499 </i>
    <i name="e_0_energy">   -625.79431388 </i>
   </energy>
  </scstep>
  <scstep>
   <time name="dav">   32.83   32.85</time>
   <time name="total">   35.41   35.43</time>
   <energy>
    <i name="e_fr_energy">   -625.82332966 </i>
    <i name="e_wo_entrp">   -625.76527258 </i>
    <i name="e_0_energy">   -625.79430112 </i>
   </energy>
  </scstep>
  <scstep>
   <time name="dav">   30.90   30.92</time>
   <time name="total">   33.48   33.50</time>
   <energy>
    <i name="e_fr_energy">   -625.82332224 </i>
    <i name="e_wo_entrp">   -625.76537640 </i>
    <i name="e_0_energy">   -625.79434932 </i>
   </energy>
  </scstep>
  <scstep>
   <time name="dav">   32.28   32.29</time>
   <time name="total">   34.86   34.88</time>
   <energy>
    <i name="e_fr_energy">   -625.82330204 </i>
    <i name="e_wo_entrp">   -625.76527381 </i>
    <i name="e_0_energy">   -625.79428792 </i>
   </energy>
  </scstep>
  <scstep>
   <time name="dav">   29.86   29.87</time>
   <time name="total">   32.40   32.42</time>
   <energy>
    <i name="e_fr_energy">   -625.82331387 </i>
    <i name="e_wo_entrp">   -625.76525846 </i>
    <i name="e_0_energy">   -625.79428616 </i>
   </energy>
  </scstep>
  <scstep>
   <time name="dav">   28.17   28.19</time>
   <time name="total">   30.74   30.76</time>
   <energy>
    <i name="e_fr_energy">   -625.82331641 </i>
    <i name="e_wo_entrp">   -625.76527679 </i>
    <i name="e_0_energy">   -625.79429660 </i>
   </energy>
  </scstep>
  <scstep>
   <time name="dav">   25.24   25.26</time>
   <time name="total">   27.78   27.80</time>
   <energy>
    <i name="e_fr_energy">   -625.82331893 </i>
    <i name="e_wo_entrp">   -625.76529464 </i>
    <i name="e_0_energy">   -625.79430678 </i>
   </energy>
  </scstep>
  <scstep>
   <time name="dav">   24.16   24.17</time>
   <time name="total">   26.74   26.76</time>
   <energy>
    <i name="e_fr_energy">   -625.82332351 </i>
    <i name="e_wo_entrp">   -625.76529590 </i>
    <i name="e_0_energy">   -625.79430970 </i>
   </energy>
  </scstep>
  <scstep>
   <time name="dav">   19.05   19.06</time>
   <time name="total">   21.60   21.61</time>
   <energy>
    <i name="e_fr_energy">   -625.82332759 </i>
    <i name="e_wo_entrp">   -625.76529181 </i>
    <i name="e_0_energy">   -625.79430970 </i>
   </energy>
  </scstep>
  <scstep>
   <time name="dav">   17.29   17.30</time>
   <time name="total">   19.83   19.84</time>
   <energy>
    <i name="e_fr_energy">   -625.82333125 </i>
    <i name="e_wo_entrp">   -625.76529272 </i>
    <i name="e_0_energy">   -625.79431198 </i>
   </energy>
  </scstep>
  <scstep>
   <time name="dav">   16.05   16.06</time>
   <time name="total">   18.60   18.61</time>
   <energy>
    <i name="e_fr_energy">   -625.82333460 </i>
    <i name="e_wo_entrp">   -625.76530080 </i>
    <i name="e_0_energy">   -625.79431770 </i>
   </energy>
  </scstep>
  <scstep>
   <time name="dav">   15.81   15.82</time>
   <time name="total">   18.39   18.40</time>
   <energy>
    <i name="e_fr_energy">   -625.82333631 </i>
    <i name="e_wo_entrp">   -625.76530460 </i>
    <i name="e_0_energy">   -625.79432046 </i>
   </energy>
  </scstep>
  <scstep>
   <time name="dav">   15.90   15.91</time>
   <time name="total">   18.46   18.47</time>
   <energy>
    <i name="e_fr_energy">   -625.82333842 </i>
    <i name="e_wo_entrp">   -625.76530569 </i>
    <i name="e_0_energy">   -625.79432206 </i>
   </energy>
  </scstep>
  <scstep>
   <time name="dav">   15.81   15.82</time>
   <time name="total">   18.38   18.39</time>
   <energy>
    <i name="e_fr_energy">   -625.82333981 </i>
    <i name="e_wo_entrp">   -625.76530687 </i>
    <i name="e_0_energy">   -625.79432334 </i>
   </energy>
  </scstep>
  <scstep>
   <time name="dav">   15.84   15.85</time>
   <time name="total">   18.43   18.44</time>
   <energy>
    <i name="e_fr_energy">   -625.82334123 </i>
    <i name="e_wo_entrp">   -625.76530740 </i>
    <i name="e_0_energy">   -625.79432432 </i>
   </energy>
  </scstep>
  <scstep>
   <time name="dav">   15.85   15.86</time>
   <time name="total">   18.42   18.43</time>
   <energy>
    <i name="e_fr_energy">   -625.82334270 </i>
    <i name="e_wo_entrp">   -625.76530919 </i>
    <i name="e_0_energy">   -625.79432594 </i>
   </energy>
  </scstep>
  <scstep>
   <time name="dav">   15.84   15.85</time>
   <time name="total">   18.41   18.42</time>
   <energy>
    <i name="e_fr_energy">   -625.82334472 </i>
    <i name="e_wo_entrp">   -625.76531188 </i>
    <i name="e_0_energy">   -625.79432830 </i>
   </energy>
  </scstep>
  <scstep>
   <time name="dav">   15.85   15.86</time>
   <time name="total">   18.41   18.42</time>
   <energy>
    <i name="e_fr_energy">   -625.82334635 </i>
    <i name="e_wo_entrp">   -625.76531372 </i>
    <i name="e_0_energy">   -625.79433003 </i>
   </energy>
  </scstep>
  <scstep>
   <time name="dav">   15.84   15.85</time>
   <time name="total">   18.40   18.41</time>
   <energy>
    <i name="e_fr_energy">   -625.82334772 </i>
    <i name="e_wo_entrp">   -625.76531475 </i>
    <i name="e_0_energy">   -625.79433124 </i>
   </energy>
  </scstep>
  <scstep>
   <time name="dav">   15.81   15.82</time>
   <time name="total">   17.10   17.11</time>
   <energy>
    <i name="alphaZ">   1646.47971768 </i>
    <i name="ewald"> 128955.76215232 </i>
    <i name="hartreedc">-179184.32615291 </i>
    <i name="XCdc">   1797.63862287 </i>
    <i name="pawpsdc">  51307.28738792 </i>
    <i name="pawaedc"> -50598.19193885 </i>
    <i name="eentropy">     -0.05803349 </i>
    <i name="bandstr">  -7474.58895501 </i>
    <i name="atom">  52924.17385108 </i>
    <i name="e_fr_energy">   -625.82334838 </i>
    <i name="e_wo_entrp">   -625.76531489 </i>
    <i name="e_0_energy">   -625.79433164 </i>
   </energy>
  </scstep>
  <structure>
   <crystal>
    <varray name="basis" >
     <v>      11.59820000       0.00000000       0.00000000 </v>
     <v>      -5.79910000      10.04433584       0.00000000 </v>
     <v>       0.00000000       0.00000000      21.04820000 </v>
    </varray>
    <i name="volume">   2452.03565189 </i>
    <varray name="rec_basis" >
     <v>       0.08622028       0.04977930       0.00000000 </v>
     <v>       0.00000000       0.09955860       0.00000000 </v>
     <v>       0.00000000       0.00000000       0.04751000 </v>
    </varray>
   </crystal>
   <varray name="positions" >
    <v>       0.02695797       0.01318062       0.46009929 </v>
    <v>       0.22692316       0.11357506       0.30767618 </v>
    <v>       0.11111000       0.22222000       0.15999000 </v>
    <v>       0.55561215       0.11094951       0.30778684 </v>
    <v>       0.44444000       0.22222000       0.15999000 </v>
    <v>       0.89461801       0.11359052       0.31464945 </v>
    <v>       0.77778000       0.22222000       0.15999000 </v>
    <v>       0.02671743       0.34635811       0.46010583 </v>
    <v>       0.22729031       0.44705840       0.30762587 </v>
    <v>       0.11111000       0.55556000       0.15999000 </v>
    <v>       0.55588348       0.44514964       0.30682602 </v>
    <v>       0.44444000       0.55556000       0.15999000 </v>
    <v>       0.89480628       0.44720723       0.31460243 </v>
    <v>       0.77778000       0.55556000       0.15999000 </v>
    <v>       0.02755165       0.68027258       0.46013085 </v>
    <v>       0.22703503       0.78008055       0.30760519 </v>
    <v>       0.11111000       0.88889000       0.15999000 </v>
    <v>       0.55593796       0.77756558       0.30708845 </v>
    <v>       0.44444000       0.88889000       0.15999000 </v>
    <v>       0.89417103       0.78027292       0.31466704 </v>
    <v>       0.77778000       0.88889000       0.15999000 </v>
    <v>       0.00000000       0.00000000       0.12250000 </v>
    <v>       0.10370148       0.21841817       0.27643395 </v>
    <v>       0.24354823       0.12285170       0.42597414 </v>
    <v>       0.11111000       0.22222000       0.04751000 </v>
    <v>       0.15272761       0.24251558       0.50539710 </v>
    <v>       0.01163794       0.00528996       0.35514219 </v>
    <v>       0.22222000       0.11111000       0.19748000 </v>
    <v>       0.33333000       0.00000000       0.12250000 </v>
    <v>       0.45937031       0.22948623       0.27283594 </v>
    <v>       0.51170667       0.08815651       0.42211406 </v>
    <v>       0.44444000       0.22222000       0.04751000 </v>
    <v>       0.43975533       0.22436098       0.48799886 </v>
    <v>       0.33098306       0.99900578       0.33518106 </v>
    <v>       0.55556000       0.11111000       0.19748000 </v>
    <v>       0.66667000       0.00000000       0.12250000 </v>
    <v>       0.77542741       0.22105916       0.28020334 </v>
    <v>       0.92586937       0.12860657       0.43013124 </v>
    <v>       0.77778000       0.22222000       0.04751000 </v>
    <v>       0.70302071       0.16951449       0.48236196 </v>
    <v>       0.66806574       0.00003493       0.36370740 </v>
    <v>       0.88889000       0.11111000       0.19748000 </v>
    <v>       0.00000000       0.33333000       0.12250000 </v>
    <v>       0.10358991       0.55186097       0.27641875 </v>
    <v>       0.24297581       0.45476113       0.42610846 </v>
    <v>       0.11111000       0.55556000       0.04751000 </v>
    <v>       0.15255102       0.57661353       0.50521655 </v>
    <v>       0.01135108       0.33892406       0.35502684 </v>
    <v>       0.22222000       0.44444000       0.19748000 </v>
    <v>       0.33333000       0.33333000       0.12250000 </v>
    <v>       0.45925897       0.56291212       0.27276301 </v>
    <v>       0.51190854       0.42266492       0.42169973 </v>
    <v>       0.44444000       0.55556000       0.04751000 </v>
    <v>       0.43767999       0.55313845       0.48845678 </v>
    <v>       0.33141993       0.33246174       0.33514057 </v>
    <v>       0.55556000       0.44444000       0.19748000 </v>
    <v>       0.66667000       0.33333000       0.12250000 </v>
    <v>       0.77557018       0.55417636       0.28018147 </v>
    <v>       0.92513833       0.46164586       0.43026856 </v>
    <v>       0.77778000       0.55556000       0.04751000 </v>
    <v>       0.70031516       0.49909312       0.48273363 </v>
    <v>       0.66831608       0.33319020       0.36343416 </v>
    <v>       0.88889000       0.44444000       0.19748000 </v>
    <v>       0.00000000       0.66667000       0.12250000 </v>
    <v>       0.10383907       0.88520230       0.27630190 </v>
    <v>       0.24379443       0.78798040       0.42592078 </v>
    <v>       0.11111000       0.88889000       0.04751000 </v>
    <v>       0.15090802       0.90848239       0.50481661 </v>
    <v>       0.01164671       0.67247953       0.35520501 </v>
    <v>       0.22222000       0.77778000       0.19748000 </v>
    <v>       0.33333000       0.66667000       0.12250000 </v>
    <v>       0.45935331       0.89655455       0.27284089 </v>
    <v>       0.51209430       0.75367875       0.42183292 </v>
    <v>       0.44444000       0.88889000       0.04751000 </v>
    <v>       0.43969126       0.88523574       0.48796771 </v>
    <v>       0.33124082       0.66575079       0.33513539 </v>
    <v>       0.55556000       0.77778000       0.19748000 </v>
    <v>       0.66667000       0.66667000       0.12250000 </v>
    <v>       0.77560115       0.88793180       0.28015371 </v>
    <v>       0.92328261       0.79387112       0.43057241 </v>
    <v>       0.77778000       0.88889000       0.04751000 </v>
    <v>       0.70120409       0.84579742       0.48252798 </v>
    <v>       0.66773221       0.66646594       0.36438720 </v>
    <v>       0.88889000       0.77778000       0.19748000 </v>
    <v>       0.33157129       0.99637268       0.46260508 </v>
    <v>       0.60996249       0.98643685       0.45267307 </v>
    <v>       0.33136306       0.32899654       0.46304507 </v>
    <v>       0.60843555       0.32535186       0.45301155 </v>
    <v>       0.33148906       0.66400094       0.46305087 </v>
    <v>       0.60981988       0.65476725       0.45075168 </v>
   </varray>
  </structure>
  <varray name="forces" >
   <v>       0.08148414      -0.03080124       0.29735058 </v>
   <v>       0.22961072       0.07820299       0.00474003 </v>
   <v>      -0.21016021      -0.14787156      -1.27409001 </v>
   <v>      -0.62218237      -0.28706286       0.09841086 </v>
   <v>       0.09189014       0.09383012      -1.52389717 </v>
   <v>       0.19550003       0.19055700       0.28968298 </v>
   <v>       0.13451812       0.10316344      -1.15725395 </v>
   <v>       0.11299483       0.04388956       0.18370783 </v>
   <v>       0.08860482       0.04093157       0.09035972 </v>
   <v>      -0.22713449      -0.12204003      -1.27783940 </v>
   <v>      -0.50686779      -0.64438008       0.04704382 </v>
   <v>       0.01722913       0.02601743      -1.64441337 </v>
   <v>       0.21445989       0.01958143       0.31696112 </v>
   <v>       0.27918731       0.10813277      -1.23637339 </v>
   <v>       0.14164194       0.07820161       0.25057217 </v>
   <v>       0.14380562       0.15705961       0.03268844 </v>
   <v>      -0.30713670      -0.16721881      -1.26746417 </v>
   <v>      -0.79970772      -0.20998652       0.05204578 </v>
   <v>       0.11408342       0.01062106      -1.55751022 </v>
   <v>       0.43255248       0.19142438       0.23927519 </v>
   <v>       0.25538364       0.16944428      -1.27102307 </v>
   <v>      -0.02423037      -0.03346057       0.24317153 </v>
   <v>      -0.20885550      -0.11736057      -0.25843572 </v>
   <v>       0.10519190       0.11876498       0.15886658 </v>
   <v>       0.00838232      -0.01951695       0.08099443 </v>
   <v>       0.37998221       0.12451116      -0.53747239 </v>
   <v>      -0.19615843      -0.18669193      -0.53522860 </v>
   <v>       0.13101256       0.06337091       0.79394191 </v>
   <v>      -0.02526726      -0.01387555       0.32625349 </v>
   <v>      -0.03964702       0.06011773       0.26355499 </v>
   <v>       0.05906060      -0.38529205      -0.02613701 </v>
   <v>       0.05040116       0.05879320       0.08285897 </v>
   <v>      -0.47663299      -0.09219348       1.55165693 </v>
   <v>       0.05961353       0.05724628      -0.11310618 </v>
   <v>       0.17267090       0.08970228       0.47275167 </v>
   <v>       0.02877920       0.01796041       0.29036997 </v>
   <v>       0.40671331       0.21245407       0.06927487 </v>
   <v>       0.17346096       0.05028633       0.24730648 </v>
   <v>      -0.13565667      -0.01359871       0.15260856 </v>
   <v>       0.72225049      -1.07788859       0.44322786 </v>
   <v>      -0.08963614      -0.07841546       0.38941606 </v>
   <v>      -0.18546807      -0.10266822       1.05868350 </v>
   <v>       0.08336401       0.03040317       0.36900885 </v>
   <v>      -0.17257645      -0.11290586      -0.27416166 </v>
   <v>       0.00641211       0.01950767       0.09932946 </v>
   <v>       0.01828120       0.01730424       0.07852188 </v>
   <v>       0.33843097       0.18779435      -0.55286733 </v>
   <v>      -0.16980354      -0.14168197      -0.51449841 </v>
   <v>       0.12398440       0.07211081       0.81793757 </v>
   <v>       0.01394989       0.00491721       0.32338767 </v>
   <v>       0.01479675       0.02990520       0.28848619 </v>
   <v>      -0.05874887      -0.11371992      -0.16985351 </v>
   <v>      -0.03768342       0.01834894       0.08571646 </v>
   <v>       0.35705166       0.45498203       0.97212211 </v>
   <v>       0.10104927       0.13027587      -0.07866673 </v>
   <v>       0.18132228       0.13624905       0.49224941 </v>
   <v>       0.01527443       0.00808916       0.19174089 </v>
   <v>       0.31894286       0.30345969       0.08513098 </v>
   <v>       0.16662117       0.05946050       0.28954695 </v>
   <v>       0.01779807      -0.05998836       0.18591985 </v>
   <v>       0.73540639       0.15157380       0.83661716 </v>
   <v>      -0.26517164       0.02709033       0.70003456 </v>
   <v>      -0.17028934      -0.10644552       1.04723793 </v>
   <v>      -0.02849624       0.01197028       0.30789164 </v>
   <v>      -0.27989169      -0.16604970      -0.23862908 </v>
   <v>       0.10608003      -0.00340757       0.11981465 </v>
   <v>      -0.06197886       0.00124864       0.12783876 </v>
   <v>       0.36743945       0.18022069      -0.61041278 </v>
   <v>      -0.22067699      -0.11711424      -0.53699180 </v>
   <v>       0.12113349       0.08253873       0.78984146 </v>
   <v>       0.01821566      -0.00386676       0.26519137 </v>
   <v>       0.04553040      -0.07342769       0.27292813 </v>
   <v>      -0.14622809      -0.27825070      -0.36915078 </v>
   <v>       0.04138857      -0.04842036       0.09278963 </v>
   <v>      -0.22465571       0.06503098       1.32368705 </v>
   <v>       0.14374185       0.08418871      -0.09627736 </v>
   <v>       0.20668618       0.10390284       0.51180791 </v>
   <v>       0.01885162       0.00628695       0.33528511 </v>
   <v>       0.39418800       0.15487267       0.10146309 </v>
   <v>       0.13165672       0.00724725       0.23329657 </v>
   <v>       0.04063441       0.04060962       0.20171622 </v>
   <v>       0.60915679      -1.28573967       0.01036897 </v>
   <v>       0.10924173       0.03594583      -0.34705743 </v>
   <v>      -0.21187145      -0.12803840       1.09440918 </v>
   <v>      -0.88232053      -0.86385244      -0.42646242 </v>
   <v>      -0.06752564       1.57076479      -0.95837779 </v>
   <v>      -1.14160664      -0.53165313      -0.57049108 </v>
   <v>       0.37444504       0.64987325      -1.98039147 </v>
   <v>      -0.75386635      -0.84390715      -0.47595737 </v>
   <v>      -1.10340755       1.79835477       0.70139769 </v>
  </varray>
  <varray name="stress" >
   <v>     -15.53415178      13.88104420      -0.21679127 </v>
   <v>      13.88110852     -35.67595952      -1.10581008 </v>
   <v>      -0.21626531      -1.10594660       3.98535578 </v>
  </varray>
  <energy>
   <i name="e_fr_energy">   -625.82334838 </i>
   <i name="e_wo_entrp">   -625.76531489 </i>
   <i name="e_0_energy">   -625.79433164 </i>
  </energy>
  <time name="totalsc">  571.69  572.12</time>
 </calculation>
 <calculation>
  <scstep>
   <time name="dav">   21.00   21.01</time>
   <time name="total">   23.60   23.62</time>
   <energy>
    <i name="alphaZ">   1646.47971768 </i>
    <i name="ewald"> 128871.88668380 </i>
    <i name="hartreedc">-179100.00792389 </i>
    <i name="XCdc">   1797.65701820 </i>
    <i name="pawpsdc">  51307.28737074 </i>
    <i name="pawaedc"> -50598.19192373 </i>
    <i name="eentropy">     -0.05753137 </i>
    <i name="bandstr">  -7475.06000616 </i>
    <i name="atom">  52924.17385108 </i>
    <i name="e_fr_energy">   -625.83274365 </i>
    <i name="e_wo_entrp">   -625.77521228 </i>
    <i name="e_0_energy">   -625.80397796 </i>
   </energy>
  </scstep>
  <scstep>
   <time name="dav">   24.73   24.74</time>
   <time name="total">   27.28   27.30</time>
   <energy>
    <i name="e_fr_energy">   -625.83967679 </i>
    <i name="e_wo_entrp">   -625.78187108 </i>
    <i name="e_0_energy">   -625.81077393 </i>
   </energy>
  </scstep>
  <scstep>
   <time name="dav">   34.67   34.68</time>
   <time name="total">   37.23   37.25</time>
   <energy>
    <i name="e_fr_energy">   -625.83976605 </i>
    <i name="e_wo_entrp">   -625.78205587 </i>
    <i name="e_0_energy">   -625.81091096 </i>
   </energy>
  </scstep>
  <scstep>
