<?xml version="1.0" encoding="ISO-8859-1"?>
<modeling>
 <generator>
  <i name="program" type="string">vasp </i>
  <i name="version" type="string">6.4.3  </i>
  <i name="subversion" type="string">19Mar24 (build Mar 01 2025 17:53:50) complex                          parallel </i>
  <i name="platform" type="string">Shaheen </i>
  <i name="date" type="string">2025 04 21 </i>
  <i name="time" type="string">16:33:09 </i>
 </generator>
 <incar>
  <i type="int" name="ISTART">     1</i>
  <i type="string" name="PREC">Accurate   (Precision level: Normal or Accurate, set Accurate when perform structure lattice relaxation calculation)</i>
  <i type="logical" name="ADDGRID"> T  </i>
  <i type="int" name="ISPIN">     2</i>
  <i type="int" name="NELM">    90</i>
  <i type="int" name="NELMIN">     6</i>
  <i type="int" name="IBRION">     2</i>
  <i name="EDIFF">      0.00000100</i>
  <i name="EDIFFG">     -0.02000000</i>
  <i type="int" name="NSW">   300</i>
  <i type="int" name="ISIF">     2</i>
  <i name="ENCUT">    520.00000000</i>
  <v name="MAGMOM">      1.00000000      1.00000000      1.00000000      1.00000000      1.00000000      1.00000000      1.00000000      1.00000000      1.00000000      1.00000000      1.00000000      1.00000000      1.00000000      1.00000000      1.00000000      1.00000000      1.00000000      1.00000000      1.00000000      1.00000000
      1.00000000      0.60000000      0.60000000      0.60000000      0.60000000      0.60000000      0.60000000      0.60000000      0.60000000      0.60000000      0.60000000      0.60000000      0.60000000      0.60000000      0.60000000      0.60000000      0.60000000      0.60000000      0.60000000      0.60000000
      0.60000000      0.60000000      0.60000000      0.60000000      0.60000000      0.60000000      0.60000000      0.60000000      0.60000000      0.60000000      0.60000000      0.60000000      0.60000000      0.60000000      0.60000000      0.60000000      0.60000000      0.60000000      0.60000000      0.60000000
      0.60000000      0.60000000      0.60000000      0.60000000      0.60000000      0.60000000      0.60000000      0.60000000      0.60000000      0.60000000      0.60000000      0.60000000      0.60000000      0.60000000      0.60000000      0.60000000      0.60000000      0.60000000      0.60000000      0.60000000
      0.60000000      0.60000000      0.60000000      0.60000000      0.60000000      0.60000000      0.60000000      0.60000000      0.60000000      0.60000000</v>
  <i type="logical" name="LREAL"> F  </i>
  <i type="int" name="ISMEAR">     0</i>
  <i name="SIGMA">      0.05000000</i>
  <i type="int" name="LMAXMIX">     6</i>
  <i type="logical" name="LWAVE"> F  </i>
  <i type="logical" name="LCHARG"> F  </i>
  <i type="logical" name="LASPH"> T  </i>
  <i type="logical" name="LDAU"> T  </i>
  <i type="int" name="LDAUTYPE">     2</i>
  <v type="int" name="LDAUL">     3    -1     2</v>
  <v name="LDAUU">      5.00000000      0.00000000      2.00000000</v>
  <v name="LDAUJ">      0.00000000      0.00000000      0.00000000</v>
 </incar>
 <primitive_cell>
  <structure name="primitive_cell" >
   <crystal>
    <varray name="basis" >
     <v>      11.59820000       0.00000000       0.00000000 </v>
     <v>      -5.79910000      10.04433584       0.00000000 </v>
     <v>       0.00000000       0.00000000      21.04820000 </v>
    </varray>
    <i name="volume">   2452.03565189 </i>
    <varray name="rec_basis" >
     <v>       0.08622028       0.04977930       0.00000000 </v>
     <v>       0.00000000       0.09955860       0.00000000 </v>
     <v>       0.00000000       0.00000000       0.04751000 </v>
    </varray>
   </crystal>
   <varray name="positions" >
    <v>       0.03159459       0.00488093       0.46014820 </v>
    <v>       0.22741894       0.10991892       0.30950993 </v>
    <v>       0.11111000       0.22222000       0.15999000 </v>
    <v>       0.54941502       0.10590126       0.31245476 </v>
    <v>       0.44444000       0.22222000       0.15999000 </v>
    <v>       0.89719564       0.11313895       0.31866687 </v>
    <v>       0.77778000       0.22222000       0.15999000 </v>
    <v>       0.02752381       0.34137406       0.46243184 </v>
    <v>       0.22807782       0.44524979       0.30831385 </v>
    <v>       0.11111000       0.55556000       0.15999000 </v>
    <v>       0.55235704       0.44565610       0.31080728 </v>
    <v>       0.44444000       0.55556000       0.15999000 </v>
    <v>       0.89570602       0.44575278       0.31639491 </v>
    <v>       0.77778000       0.55556000       0.15999000 </v>
    <v>       0.00499416       0.65660438       0.46380098 </v>
    <v>       0.22072915       0.77333339       0.30700564 </v>
    <v>       0.11111000       0.88889000       0.15999000 </v>
    <v>       0.55626779       0.77826036       0.30693775 </v>
    <v>       0.44444000       0.88889000       0.15999000 </v>
    <v>       0.89120528       0.77882037       0.31779054 </v>
    <v>       0.77778000       0.88889000       0.15999000 </v>
    <v>       0.00000000       0.00000000       0.12250000 </v>
    <v>       0.10948013       0.21985545       0.27585761 </v>
    <v>       0.23077504       0.05937273       0.42556991 </v>
    <v>       0.11111000       0.22222000       0.04751000 </v>
    <v>       0.15342338       0.24717569       0.50077478 </v>
    <v>       0.01049510       0.00370274       0.35274183 </v>
    <v>       0.22222000       0.11111000       0.19748000 </v>
    <v>       0.33333000       0.00000000       0.12250000 </v>
    <v>       0.46067255       0.23267309       0.27663407 </v>
    <v>       0.48370178       0.04249730       0.42758396 </v>
    <v>       0.44444000       0.22222000       0.04751000 </v>
    <v>       0.44659988       0.29466108       0.49827888 </v>
    <v>       0.33217926       0.99515203       0.32659411 </v>
    <v>       0.55556000       0.11111000       0.19748000 </v>
    <v>       0.66667000       0.00000000       0.12250000 </v>
    <v>       0.77420291       0.22422166       0.28621654 </v>
    <v>       0.93620531       0.12696176       0.43029871 </v>
    <v>       0.77778000       0.22222000       0.04751000 </v>
    <v>       0.69939051       0.09676952       0.50574282 </v>
    <v>       0.66816731       0.00005176       0.37006714 </v>
    <v>       0.88889000       0.11111000       0.19748000 </v>
    <v>       1.00000000       0.33333000       0.12250000 </v>
    <v>       0.09853341       0.54740451       0.27493251 </v>
    <v>       0.24331704       0.47734775       0.43011789 </v>
    <v>       0.11111000       0.55556000       0.04751000 </v>
    <v>       0.13412089       0.56633567       0.51222058 </v>
    <v>       0.01487935       0.33684961       0.35400247 </v>
    <v>       0.22222000       0.44444000       0.19748000 </v>
    <v>       0.33333000       0.33333000       0.12250000 </v>
    <v>       0.45845173       0.55663243       0.27498942 </v>
    <v>       0.51409471       0.48661718       0.43089637 </v>
    <v>       0.44444000       0.55556000       0.04751000 </v>
    <v>       0.44149579       0.60785170       0.51194385 </v>
    <v>       0.33169987       0.32909074       0.34886023 </v>
    <v>       0.55556000       0.44444000       0.19748000 </v>
    <v>       0.66667000       0.33333000       0.12250000 </v>
    <v>       0.77223783       0.54810076       0.28293098 </v>
    <v>       0.91603369       0.44507441       0.43055826 </v>
    <v>       0.77778000       0.55556000       0.04751000 </v>
    <v>       0.75213849       0.53961433       0.49681232 </v>
    <v>       0.64139336       0.33840678       0.37975780 </v>
    <v>       0.88889000       0.44444000       0.19748000 </v>
    <v>       1.00000000       0.66667000       0.12250000 </v>
    <v>       0.09946619       0.87974776       0.27562859 </v>
    <v>       0.22292225       0.74434789       0.42162312 </v>
    <v>       0.11111000       0.88889000       0.04751000 </v>
    <v>       0.13528561       0.86806503       0.50798617 </v>
    <v>       0.99947416       0.66268290       0.35501811 </v>
    <v>       0.22222000       0.77778000       0.19748000 </v>
    <v>       0.33333000       0.66667000       0.12250000 </v>
    <v>       0.46669984       0.90080182       0.27441630 </v>
    <v>       0.48627213       0.76088733       0.41983096 </v>
    <v>       0.44444000       0.88889000       0.04751000 </v>
    <v>       0.40722370       0.85927246       0.50354454 </v>
    <v>       0.33340991       0.66403225       0.32259785 </v>
    <v>       0.55556000       0.77778000       0.19748000 </v>
    <v>       0.66667000       0.66667000       0.12250000 </v>
    <v>       0.77870076       0.89466817       0.28011793 </v>
    <v>       0.92414262       0.79677987       0.42987401 </v>
    <v>       0.77778000       0.88889000       0.04751000 </v>
    <v>       0.68842184       0.86425731       0.48279927 </v>
    <v>       0.67348641       0.68415674       0.36566076 </v>
    <v>       0.88889000       0.77778000       0.19748000 </v>
    <v>       0.30665960       0.95285333       0.46596881 </v>
    <v>       0.59002428       0.96075418       0.45670168 </v>
    <v>       0.33088730       0.37239526       0.46853006 </v>
    <v>       0.61117741       0.39490296       0.45949591 </v>
    <v>       0.31488073       0.66363419       0.47159781 </v>
    <v>       0.59703578       0.68635793       0.45304875 </v>
   </varray>
  </structure>
  <varray name="primitive_index" >
   <v type="int" >        1 </v>
   <v type="int" >        2 </v>
   <v type="int" >        3 </v>
   <v type="int" >        4 </v>
   <v type="int" >        5 </v>
   <v type="int" >        6 </v>
   <v type="int" >        7 </v>
   <v type="int" >        8 </v>
   <v type="int" >        9 </v>
   <v type="int" >       10 </v>
   <v type="int" >       11 </v>
   <v type="int" >       12 </v>
   <v type="int" >       13 </v>
   <v type="int" >       14 </v>
   <v type="int" >       15 </v>
   <v type="int" >       16 </v>
   <v type="int" >       17 </v>
   <v type="int" >       18 </v>
   <v type="int" >       19 </v>
   <v type="int" >       20 </v>
   <v type="int" >       21 </v>
   <v type="int" >       22 </v>
   <v type="int" >       23 </v>
   <v type="int" >       24 </v>
   <v type="int" >       25 </v>
   <v type="int" >       26 </v>
   <v type="int" >       27 </v>
   <v type="int" >       28 </v>
   <v type="int" >       29 </v>
   <v type="int" >       30 </v>
   <v type="int" >       31 </v>
   <v type="int" >       32 </v>
   <v type="int" >       33 </v>
   <v type="int" >       34 </v>
   <v type="int" >       35 </v>
   <v type="int" >       36 </v>
   <v type="int" >       37 </v>
   <v type="int" >       38 </v>
   <v type="int" >       39 </v>
   <v type="int" >       40 </v>
   <v type="int" >       41 </v>
   <v type="int" >       42 </v>
   <v type="int" >       43 </v>
   <v type="int" >       44 </v>
   <v type="int" >       45 </v>
   <v type="int" >       46 </v>
   <v type="int" >       47 </v>
   <v type="int" >       48 </v>
   <v type="int" >       49 </v>
   <v type="int" >       50 </v>
   <v type="int" >       51 </v>
   <v type="int" >       52 </v>
   <v type="int" >       53 </v>
   <v type="int" >       54 </v>
   <v type="int" >       55 </v>
   <v type="int" >       56 </v>
   <v type="int" >       57 </v>
   <v type="int" >       58 </v>
   <v type="int" >       59 </v>
   <v type="int" >       60 </v>
   <v type="int" >       61 </v>
   <v type="int" >       62 </v>
   <v type="int" >       63 </v>
   <v type="int" >       64 </v>
   <v type="int" >       65 </v>
   <v type="int" >       66 </v>
   <v type="int" >       67 </v>
   <v type="int" >       68 </v>
   <v type="int" >       69 </v>
   <v type="int" >       70 </v>
   <v type="int" >       71 </v>
   <v type="int" >       72 </v>
   <v type="int" >       73 </v>
   <v type="int" >       74 </v>
   <v type="int" >       75 </v>
   <v type="int" >       76 </v>
   <v type="int" >       77 </v>
   <v type="int" >       78 </v>
   <v type="int" >       79 </v>
   <v type="int" >       80 </v>
   <v type="int" >       81 </v>
   <v type="int" >       82 </v>
   <v type="int" >       83 </v>
   <v type="int" >       84 </v>
   <v type="int" >       85 </v>
   <v type="int" >       86 </v>
   <v type="int" >       87 </v>
   <v type="int" >       88 </v>
   <v type="int" >       89 </v>
   <v type="int" >       90 </v>
  </varray>
 </primitive_cell>
 <kpoints>
  <generation param="Monkhorst-Pack">
   <v type="int" name="divisions">       3        3        1 </v>
   <v name="usershift">      0.00000000       0.00000000       0.00000000 </v>
   <v name="genvec1">      0.33333333      -0.00000000       0.00000000 </v>
   <v name="genvec2">      0.00000000       0.33333333       0.00000000 </v>
   <v name="genvec3">      0.00000000       0.00000000       1.00000000 </v>
   <v name="shift">      0.00000000       0.00000000       0.00000000 </v>
  </generation>
  <varray name="kpointlist" >
   <v>       0.00000000       0.00000000       0.00000000 </v>
   <v>       0.33333333      -0.00000000       0.00000000 </v>
   <v>       0.00000000       0.33333333       0.00000000 </v>
   <v>      -0.33333333       0.33333333       0.00000000 </v>
   <v>       0.33333333       0.33333333       0.00000000 </v>
  </varray>
  <varray name="weights" >
   <v>       0.11111111 </v>
   <v>       0.22222222 </v>
   <v>       0.22222222 </v>
   <v>       0.22222222 </v>
   <v>       0.22222222 </v>
  </varray>
 </kpoints>
 <parameters>
  <separator name="general" >
   <i type="string" name="SYSTEM">unknown system</i>
   <i type="logical" name="LCOMPAT"> F  </i>
  </separator>
  <separator name="electronic" >
   <i type="string" name="PREC">accura</i>
   <i name="ENMAX">    520.00000000</i>
   <i name="ENAUG">    605.39200000</i>
   <i name="EDIFF">      0.00000100</i>
   <i type="int" name="IALGO">    38</i>
   <i type="int" name="IWAVPR">    11</i>
   <i type="int" name="NBANDS">   480</i>
   <i type="int" name="NBANDSLOW">    -1</i>
   <i type="int" name="NBANDSHIGH">    -1</i>
   <i name="NELECT">    684.00000000</i>
   <i type="int" name="TURBO">     0</i>
   <i type="int" name="IRESTART">     0</i>
   <i type="int" name="NREBOOT">     0</i>
   <i type="int" name="NMIN">     0</i>
   <i name="EREF">      0.00000000</i>
   <separator name="electronic smearing" >
    <i type="int" name="ISMEAR">     0</i>
    <i name="SIGMA">      0.05000000</i>
    <i name="KSPACING">      0.50000000</i>
    <i type="logical" name="KGAMMA"> T  </i>
    <i type="logical" name="KBLOWUP"> T  </i>
   </separator>
   <separator name="electronic projectors" >
    <i type="logical" name="LREAL"> F  </i>
    <v name="ROPT">      0.00000000      0.00000000      0.00000000</v>
    <i type="int" name="LMAXPAW">  -100</i>
    <i type="int" name="LMAXMIX">     6</i>
    <i type="logical" name="NLSPLINE"> F  </i>
   </separator>
   <separator name="electronic startup" >
    <i type="int" name="ISTART">     0</i>
    <i type="int" name="ICHARG">     2</i>
    <i type="int" name="INIWAV">     1</i>
   </separator>
   <separator name="electronic spin" >
    <i type="int" name="ISPIN">     2</i>
    <i type="logical" name="LNONCOLLINEAR"> F  </i>
    <v name="MAGMOM">      1.00000000      1.00000000      1.00000000      1.00000000      1.00000000      1.00000000      1.00000000      1.00000000      1.00000000      1.00000000      1.00000000      1.00000000      1.00000000      1.00000000      1.00000000      1.00000000      1.00000000      1.00000000      1.00000000      1.00000000
      1.00000000      0.60000000      0.60000000      0.60000000      0.60000000      0.60000000      0.60000000      0.60000000      0.60000000      0.60000000      0.60000000      0.60000000      0.60000000      0.60000000      0.60000000      0.60000000      0.60000000      0.60000000      0.60000000      0.60000000
      0.60000000      0.60000000      0.60000000      0.60000000      0.60000000      0.60000000      0.60000000      0.60000000      0.60000000      0.60000000      0.60000000      0.60000000      0.60000000      0.60000000      0.60000000      0.60000000      0.60000000      0.60000000      0.60000000      0.60000000
      0.60000000      0.60000000      0.60000000      0.60000000      0.60000000      0.60000000      0.60000000      0.60000000      0.60000000      0.60000000      0.60000000      0.60000000      0.60000000      0.60000000      0.60000000      0.60000000      0.60000000      0.60000000      0.60000000      0.60000000
      0.60000000      0.60000000      0.60000000      0.60000000      0.60000000      0.60000000      0.60000000      0.60000000      0.60000000      0.60000000</v>
    <i name="NUPDOWN">     -1.00000000</i>
    <i type="logical" name="LSORBIT"> F  </i>
    <v name="SAXIS">      0.00000000      0.00000000      1.00000000</v>
    <i type="logical" name="LSPIRAL"> F  </i>
    <v name="QSPIRAL">      0.00000000      0.00000000      0.00000000</v>
    <i type="logical" name="LZEROZ"> F  </i>
   </separator>
   <separator name="electronic exchange-correlation" >
    <i type="logical" name="LASPH"> T  </i>
   </separator>
   <separator name="electronic convergence" >
    <i type="int" name="NELM">    90</i>
    <i type="int" name="NELMDL">     0</i>
    <i type="int" name="NELMIN">     6</i>
    <i name="ENINI">    520.00000000</i>
    <separator name="electronic convergence detail" >
     <i type="logical" name="LDIAG"> T  </i>
     <i type="logical" name="LSUBROT"> F  </i>
     <i name="WEIMIN">      0.00100000</i>
     <i name="EBREAK">      0.00000000</i>
     <i name="DEPER">      0.30000000</i>
     <i type="int" name="NRMM">     4</i>
     <i name="TIME">      0.40000000</i>
    </separator>
   </separator>
   <separator name="electronic mixer" >
    <i name="AMIX">      0.40000000</i>
    <i name="BMIX">      1.00000000</i>
    <i name="AMIN">      0.10000000</i>
    <i name="AMIX_MAG">      1.60000000</i>
    <i name="BMIX_MAG">      1.00000000</i>
    <separator name="electronic mixer details" >
     <i type="int" name="IMIX">     4</i>
     <i type="logical" name="MIXFIRST"> F  </i>
     <i type="int" name="MAXMIX">   -45</i>
     <i name="WC">    100.00000000</i>
     <i type="int" name="INIMIX">     1</i>
     <i type="int" name="MIXPRE">     1</i>
     <i type="int" name="MREMOVE">     5</i>
    </separator>
   </separator>
   <separator name="electronic dipolcorrection" >
    <i type="logical" name="LDIPOL"> F  </i>
    <i type="logical" name="LMONO"> F  </i>
    <i type="int" name="IDIPOL">     0</i>
    <i name="EPSILON">      1.00000000</i>
    <v name="DIPOL">   -100.00000000   -100.00000000   -100.00000000</v>
    <i name="EFIELD">      0.00000000</i>
    <i type="logical" name="LVACPOTAV"> F  </i>
   </separator>
  </separator>
  <separator name="grids" >
   <i type="int" name="NGX">    90</i>
   <i type="int" name="NGY">    90</i>
   <i type="int" name="NGZ">   160</i>
   <i type="int" name="NGXF">   180</i>
   <i type="int" name="NGYF">   180</i>
   <i type="int" name="NGZF">   320</i>
   <i type="logical" name="ADDGRID"> T  </i>
  </separator>
  <separator name="ionic" >
   <i type="int" name="NSW">   300</i>
   <i type="int" name="IBRION">     2</i>
   <i type="int" name="MDALGO">     0</i>
   <i type="int" name="ISIF">     2</i>
   <i name="PSTRESS">      0.00000000</i>
   <i name="EDIFFG">     -0.02000000</i>
   <i type="int" name="NFREE">     1</i>
   <i name="POTIM">      0.50000000</i>
   <i name="SMASS">     -3.00000000</i>
   <i name="SCALEE">      1.00000000</i>
  </separator>
  <separator name="ionic md" >
   <i name="TEBEG">      0.00010000</i>
   <i name="TEEND">      0.00010000</i>
   <i type="int" name="NBLOCK">     1</i>
   <i type="int" name="KBLOCK">   300</i>
   <i type="int" name="NPACO">   256</i>
   <i name="APACO">     10.00000000</i>
  </separator>
  <separator name="symmetry" >
   <i type="int" name="ISYM">     2</i>
   <i name="SYMPREC">      0.00001000</i>
  </separator>
  <separator name="dos" >
   <i type="int" name="LORBIT">     0</i>
   <v name="RWIGS">     -1.00000000     -1.00000000     -1.00000000</v>
   <i type="int" name="NEDOS">   301</i>
   <i name="EMIN">     10.00000000</i>
   <i name="EMAX">    -10.00000000</i>
   <i name="EFERMI">      0.00000000</i>
  </separator>
  <separator name="writing" >
   <i type="int" name="NWRITE">     2</i>
   <i type="logical" name="LWAVE"> F  </i>
   <i type="logical" name="LDOWNSAMPLE"> F  </i>
   <i type="logical" name="LCHARG"> F  </i>
   <i type="logical" name="LPARD"> F  </i>
   <i type="logical" name="LVTOT"> F  </i>
   <i type="logical" name="LVHAR"> F  </i>
   <i type="logical" name="LELF"> F  </i>
   <i type="logical" name="LOPTICS"> F  </i>
   <v name="STM">      0.00000000      0.00000000      0.00000000      0.00000000      0.00000000      0.00000000      0.00000000</v>
  </separator>
  <separator name="performance" >
   <i type="int" name="NPAR">    48</i>
   <i type="int" name="NSIM">     4</i>
   <i type="int" name="NBLK">    -1</i>
   <i type="logical" name="LPLANE"> T  </i>
   <i type="logical" name="LSCALAPACK"> T  </i>
   <i type="logical" name="LSCAAWARE"> T  </i>
   <i type="logical" name="LSCALU"> F  </i>
   <i type="logical" name="LASYNC"> F  </i>
   <i type="logical" name="LORBITALREAL"> F  </i>
  </separator>
  <separator name="miscellaneous" >
   <i type="int" name="IDIOT">     3</i>
   <i type="int" name="PHON_NSTRUCT">    -1</i>
   <i type="logical" name="LMUSIC"> F  </i>
   <v name="POMASS">    140.11500000     16.00000000    192.22000000</v>
   <v name="DARWINR">      0.00000000      0.00000000      0.00000000</v>
   <v name="DARWINV">      1.00000000      1.00000000      1.00000000</v>
   <i type="logical" name="LCORR"> T  </i>
  </separator>
  <i type="logical" name="GGA_COMPAT"> T  </i>
  <i type="logical" name="LBERRY"> F  </i>
  <i type="int" name="ICORELEVEL">     0</i>
  <i type="logical" name="LDAU"> T  </i>
  <v type="int" name="LDAUTYPE">     2</v>
  <v type="int" name="LDAUL">     3</v>
  <v name="LDAUU">      5.00000000</v>
  <v name="LDAUJ">      0.00000000</v>
  <i type="int" name="LDAUPRINT">     0</i>
  <i type="int" name="I_CONSTRAINED_M">     0</i>
  <separator name="electronic exchange-correlation" >
   <i type="string" name="GGA    ">PE</i>
   <i type="string" name="XC_C">1</i>
   <i type="int" name="VOSKOWN">     0</i>
   <i type="logical" name="LHFCALC"> F  </i>
   <i type="string" name="PRECFOCK"></i>
   <i type="logical" name="LSYMGRAD"> F  </i>
   <i type="logical" name="LHFONE"> F  </i>
   <i type="logical" name="LRHFCALC"> F  </i>
   <i type="logical" name="LTHOMAS"> F  </i>
   <i type="logical" name="LMODELHF"> F  </i>
   <i type="logical" name="LFOCKACE"> F  </i>
   <i name="ENCUT4O">     -1.00000000</i>
   <i type="int" name="EXXOEP">     0</i>
   <i type="int" name="FOURORBIT">     0</i>
   <i name="AEXX">      0.00000000</i>
   <i name="HFALPHA">      0.00000000</i>
   <i name="MCALPHA">      0.00000000</i>
   <i name="ALDAX">      1.00000000</i>
   <i name="AGGAX">      1.00000000</i>
   <i name="AMGGAX">      1.00000000</i>
   <i name="ALDAC">      1.00000000</i>
   <i name="AGGAC">      1.00000000</i>
   <i name="AMGGAC">      1.00000000</i>
   <i type="int" name="NKREDX">     1</i>
   <i type="int" name="NKREDY">     1</i>
   <i type="int" name="NKREDZ">     1</i>
   <i type="logical" name="SHIFTRED"> F  </i>
   <i type="logical" name="ODDONLY"> F  </i>
   <i type="logical" name="EVENONLY"> F  </i>
   <i type="int" name="LMAXFOCK">     0</i>
   <i type="int" name="NMAXFOCKAE">     0</i>
   <i type="logical" name="LFOCKAEDFT"> F  </i>
   <i name="HFSCREEN">      0.00000000</i>
   <i name="HFSCREENC">      0.00000000</i>
   <i type="int" name="NBANDSGWLOW">     0</i>
  </separator>
  <separator name="vdW DFT" >
   <i type="logical" name="LUSE_VDW"> F  </i>
   <i type="int" name="IVDW_NL">    -1</i>
   <i type="logical" name="LSPIN_VDW"> F  </i>
   <i name="ZAB_VDW">     -0.84910000</i>
   <i name="GAMMA_VDW">      1.39626340</i>
   <i name="ALPHA_VDW">      0.00000000</i>
   <i name="PARAM1">      0.12340000</i>
   <i name="PARAM2">      1.00000000</i>
   <i name="BPARAM">      6.30000000</i>
   <i name="CPARAM">      0.00930000</i>
  </separator>
  <separator name="model GW" >
   <i type="int" name="MODEL_GW">     0</i>
   <i name="MODEL_EPS0">     16.34690435</i>
   <i name="MODEL_ALPHA">      1.00000000</i>
  </separator>
  <separator name="linear response parameters" >
   <i type="logical" name="LEPSILON"> F  </i>
   <i type="logical" name="LRPA"> F  </i>
   <i type="logical" name="LNABLA"> F  </i>
   <i type="logical" name="LVEL"> F  </i>
   <i name="CSHIFT">      0.10000000</i>
   <i name="OMEGAMAX">     -1.00000000</i>
   <i name="DEG_THRESHOLD">      0.00200000</i>
   <i name="RTIME">     -0.10000000</i>
   <i name="WPLASMAI">      0.00000000</i>
   <v name="DFIELD">      0.00000000      0.00000000      0.00000000</v>
   <v name="WPLASMA">      0.00000000      0.00000000      0.00000000      0.00000000      0.00000000      0.00000000      0.00000000      0.00000000      0.00000000</v>
  </separator>
  <separator name="orbital magnetization" >
   <i type="logical" name="NUCIND"> F  </i>
   <v name="MAGPOS">      0.00000000      0.00000000      0.00000000</v>
   <i type="logical" name="LNICSALL"> T  </i>
   <i type="logical" name="ORBITALMAG"> F  </i>
   <i type="logical" name="LMAGBLOCH"> F  </i>
   <i type="logical" name="LCHIMAG"> F  </i>
   <i type="logical" name="LGAUGE"> T  </i>
   <i type="int" name="MAGATOM">     0</i>
   <v name="MAGDIPOL">      0.00000000      0.00000000      0.00000000</v>
   <v name="AVECCONST">      0.00000000      0.00000000      0.00000000</v>
  </separator>
  <separator name="response functions" >
   <i type="logical" name="LALL_IN_ONE"> F  </i>
   <i type="int" name="IALL_IN_ONE">    -1</i>
   <i type="int" name="NBANDS_WAVE">    -1</i>
   <i type="logical" name="LFINITE_TEMPERATURE"> F  </i>
   <i type="logical" name="LADDER"> F  </i>
   <i type="logical" name="LRPAFORCE"> F  </i>
   <i type="logical" name="LFXC"> F  </i>
   <i type="logical" name="LHARTREE"> T  </i>
   <i type="int" name="IBSE">     0</i>
   <v type="int" name="KPOINT">    -1     0     0     0</v>
   <i type="logical" name="LTCTC"> F  </i>
   <i type="logical" name="LTCTE"> F  </i>
   <i type="logical" name="LTETE"> F  </i>
   <i type="logical" name="LTRIPLET"> F  </i>
   <i type="logical" name="LFXCEPS"> F  </i>
   <i type="logical" name="LFXHEG"> F  </i>
   <i type="int" name="NATURALO">     2</i>
   <i type="logical" name="LHOLEGF"> F  </i>
   <i type="logical" name="L2ORDER"> F  </i>
   <i type="logical" name="LDMP1"> F  </i>
   <i type="logical" name="LMP2LT"> F  </i>
   <i type="logical" name="LSMP2LT"> F  </i>
   <i type="logical" name="LGWLF"> F  </i>
   <i name="ENCUTGW">     -1.60000002</i>
   <i name="ENCUTGWSOFT">     -1.60000002</i>
   <i name="ENCUTLF">     -1.00000000</i>
   <i type="logical" name="ESF_SPLINES"> F  </i>
   <i name="ESF_CONV">      0.01000000</i>
   <i type="int" name="ESF_NINTER">    15</i>
   <i type="int" name="LMAXMP2">    -1</i>
   <i name="SCISSOR">      0.00000000</i>
   <i type="int" name="NOMEGA">     0</i>
   <i type="int" name="NOMEGAR">     0</i>
   <i type="int" name="NBANDSGW">    -1</i>
   <i type="int" name="NBANDSO">    -1</i>
   <i type="int" name="NBANDSV">    -1</i>
   <i type="int" name="NELMGW">     1</i>
   <i type="int" name="NELMHF">     1</i>
   <i type="int" name="DIM">     3</i>
   <i type="int" name="IESPILON">     4</i>
   <i type="int" name="ANTIRES">     0</i>
   <i name="OMEGAMAX">    -30.00000000</i>
   <i name="OMEGAMIN">    -30.00000000</i>
   <i name="OMEGATL">   -200.00000000</i>
   <i type="int" name="OMEGAGRID">     0</i>
   <i name="CSHIFT">     -0.10000000</i>
   <i type="logical" name="LSELFENERGY"> F  </i>
   <i type="logical" name="LSPECTRAL"> F  </i>
   <i type="logical" name="LSPECTRALGW"> F  </i>
   <i type="logical" name="LSINGLES"> F  </i>
   <i type="logical" name="LFERMIGW"> F  </i>
   <i type="logical" name="ODDONLYGW"> F  </i>
   <i type="logical" name="EVENONLYGW"> F  </i>
   <i type="int" name="NKREDLFX">     1</i>
   <i type="int" name="NKREDLFY">     1</i>
   <i type="int" name="NKREDLFZ">     1</i>
   <i type="int" name="MAXMEM">  2800</i>
   <i type="int" name="TELESCOPE">     0</i>
   <i type="int" name="NTAUPAR">    -1</i>
   <i type="int" name="NOMEGAPAR">    -1</i>
   <i name="DAMP_NEWTON">      0.80000001</i>
   <i name="LAMBDA">      1.00000000</i>
  </separator>
  <separator name="External order field" >
   <i name="OFIELD_KAPPA">      0.00000000</i>
   <v name="OFIELD_K">      0.00000000      0.00000000      0.00000000</v>
   <i name="OFIELD_Q6_NEAR">      0.00000000</i>
   <i name="OFIELD_Q6_FAR">      0.00000000</i>
   <i name="OFIELD_A">      0.00000000</i>
  </separator>
  <separator name="optional k-points parameters" >
   <i type="int" name="KPOINTS_OPT_MODE">     1</i>
   <i type="logical" name="LKPOINTS_OPT"> F  </i>
  </separator>
 </parameters>
 <atominfo>
  <atoms>      90 </atoms>
  <types>       3 </types>
  <array name="atoms" >
   <dimension dim="1">ion</dimension>
   <field type="string">element</field>
   <field type="int">atomtype</field>
   <set>
    <rc><c>Ce</c><c>   1</c></rc>
    <rc><c>Ce</c><c>   1</c></rc>
    <rc><c>Ce</c><c>   1</c></rc>
    <rc><c>Ce</c><c>   1</c></rc>
    <rc><c>Ce</c><c>   1</c></rc>
    <rc><c>Ce</c><c>   1</c></rc>
    <rc><c>Ce</c><c>   1</c></rc>
    <rc><c>Ce</c><c>   1</c></rc>
    <rc><c>Ce</c><c>   1</c></rc>
    <rc><c>Ce</c><c>   1</c></rc>
    <rc><c>Ce</c><c>   1</c></rc>
    <rc><c>Ce</c><c>   1</c></rc>
    <rc><c>Ce</c><c>   1</c></rc>
    <rc><c>Ce</c><c>   1</c></rc>
    <rc><c>Ce</c><c>   1</c></rc>
    <rc><c>Ce</c><c>   1</c></rc>
    <rc><c>Ce</c><c>   1</c></rc>
    <rc><c>Ce</c><c>   1</c></rc>
    <rc><c>Ce</c><c>   1</c></rc>
    <rc><c>Ce</c><c>   1</c></rc>
    <rc><c>Ce</c><c>   1</c></rc>
    <rc><c>O </c><c>   2</c></rc>
    <rc><c>O </c><c>   2</c></rc>
    <rc><c>O </c><c>   2</c></rc>
    <rc><c>O </c><c>   2</c></rc>
    <rc><c>O </c><c>   2</c></rc>
    <rc><c>O </c><c>   2</c></rc>
    <rc><c>O </c><c>   2</c></rc>
    <rc><c>O </c><c>   2</c></rc>
    <rc><c>O </c><c>   2</c></rc>
    <rc><c>O </c><c>   2</c></rc>
    <rc><c>O </c><c>   2</c></rc>
    <rc><c>O </c><c>   2</c></rc>
    <rc><c>O </c><c>   2</c></rc>
    <rc><c>O </c><c>   2</c></rc>
    <rc><c>O </c><c>   2</c></rc>
    <rc><c>O </c><c>   2</c></rc>
    <rc><c>O </c><c>   2</c></rc>
    <rc><c>O </c><c>   2</c></rc>
    <rc><c>O </c><c>   2</c></rc>
    <rc><c>O </c><c>   2</c></rc>
    <rc><c>O </c><c>   2</c></rc>
    <rc><c>O </c><c>   2</c></rc>
    <rc><c>O </c><c>   2</c></rc>
    <rc><c>O </c><c>   2</c></rc>
    <rc><c>O </c><c>   2</c></rc>
    <rc><c>O </c><c>   2</c></rc>
    <rc><c>O </c><c>   2</c></rc>
    <rc><c>O </c><c>   2</c></rc>
    <rc><c>O </c><c>   2</c></rc>
    <rc><c>O </c><c>   2</c></rc>
    <rc><c>O </c><c>   2</c></rc>
    <rc><c>O </c><c>   2</c></rc>
    <rc><c>O </c><c>   2</c></rc>
    <rc><c>O </c><c>   2</c></rc>
    <rc><c>O </c><c>   2</c></rc>
    <rc><c>O </c><c>   2</c></rc>
    <rc><c>O </c><c>   2</c></rc>
    <rc><c>O </c><c>   2</c></rc>
    <rc><c>O </c><c>   2</c></rc>
    <rc><c>O </c><c>   2</c></rc>
    <rc><c>O </c><c>   2</c></rc>
    <rc><c>O </c><c>   2</c></rc>
    <rc><c>O </c><c>   2</c></rc>
    <rc><c>O </c><c>   2</c></rc>
    <rc><c>O </c><c>   2</c></rc>
    <rc><c>O </c><c>   2</c></rc>
    <rc><c>O </c><c>   2</c></rc>
    <rc><c>O </c><c>   2</c></rc>
    <rc><c>O </c><c>   2</c></rc>
    <rc><c>O </c><c>   2</c></rc>
    <rc><c>O </c><c>   2</c></rc>
    <rc><c>O </c><c>   2</c></rc>
    <rc><c>O </c><c>   2</c></rc>
    <rc><c>O </c><c>   2</c></rc>
    <rc><c>O </c><c>   2</c></rc>
    <rc><c>O </c><c>   2</c></rc>
    <rc><c>O </c><c>   2</c></rc>
    <rc><c>O </c><c>   2</c></rc>
    <rc><c>O </c><c>   2</c></rc>
    <rc><c>O </c><c>   2</c></rc>
    <rc><c>O </c><c>   2</c></rc>
    <rc><c>O </c><c>   2</c></rc>
    <rc><c>O </c><c>   2</c></rc>
    <rc><c>Ir</c><c>   3</c></rc>
    <rc><c>Ir</c><c>   3</c></rc>
    <rc><c>Ir</c><c>   3</c></rc>
    <rc><c>Ir</c><c>   3</c></rc>
    <rc><c>Ir</c><c>   3</c></rc>
    <rc><c>Ir</c><c>   3</c></rc>
   </set>
  </array>
  <array name="atomtypes" >
   <dimension dim="1">type</dimension>
   <field type="int">atomspertype</field>
   <field type="string">element</field>
   <field>mass</field>
   <field>valence</field>
   <field type="string">pseudopotential</field>
   <set>
    <rc><c>  21</c><c>Ce</c><c>    140.11500000</c><c>     12.00000000</c><c>  PAW_PBE Ce 23Dec2003                  </c></rc>
    <rc><c>  63</c><c>O </c><c>     16.00000000</c><c>      6.00000000</c><c>  PAW_PBE O 08Apr2002                   </c></rc>
    <rc><c>   6</c><c>Ir</c><c>    192.22000000</c><c>      9.00000000</c><c>  PAW_PBE Ir 06Sep2000                  </c></rc>
   </set>
  </array>
 </atominfo>
 <structure name="initialpos" >
  <crystal>
   <varray name="basis" >
    <v>      11.59820000       0.00000000       0.00000000 </v>
    <v>      -5.79910000      10.04433584       0.00000000 </v>
    <v>       0.00000000       0.00000000      21.04820000 </v>
   </varray>
   <i name="volume">   2452.03565189 </i>
   <varray name="rec_basis" >
    <v>       0.08622028       0.04977930       0.00000000 </v>
    <v>       0.00000000       0.09955860       0.00000000 </v>
    <v>       0.00000000       0.00000000       0.04751000 </v>
   </varray>
  </crystal>
  <varray name="positions" >
   <v>       0.03159459       0.00488093       0.46014820 </v>
   <v>       0.22741894       0.10991892       0.30950993 </v>
   <v>       0.11111000       0.22222000       0.15999000 </v>
   <v>       0.54941502       0.10590126       0.31245476 </v>
   <v>       0.44444000       0.22222000       0.15999000 </v>
   <v>       0.89719564       0.11313895       0.31866687 </v>
   <v>       0.77778000       0.22222000       0.15999000 </v>
   <v>       0.02752381       0.34137406       0.46243184 </v>
   <v>       0.22807782       0.44524979       0.30831385 </v>
   <v>       0.11111000       0.55556000       0.15999000 </v>
   <v>       0.55235704       0.44565610       0.31080728 </v>
   <v>       0.44444000       0.55556000       0.15999000 </v>
   <v>       0.89570602       0.44575278       0.31639491 </v>
   <v>       0.77778000       0.55556000       0.15999000 </v>
   <v>       0.00499416       0.65660438       0.46380098 </v>
   <v>       0.22072915       0.77333339       0.30700564 </v>
   <v>       0.11111000       0.88889000       0.15999000 </v>
   <v>       0.55626779       0.77826036       0.30693775 </v>
   <v>       0.44444000       0.88889000       0.15999000 </v>
   <v>       0.89120528       0.77882037       0.31779054 </v>
   <v>       0.77778000       0.88889000       0.15999000 </v>
   <v>       0.00000000       0.00000000       0.12250000 </v>
   <v>       0.10948013       0.21985545       0.27585761 </v>
   <v>       0.23077504       0.05937273       0.42556991 </v>
   <v>       0.11111000       0.22222000       0.04751000 </v>
   <v>       0.15342338       0.24717569       0.50077478 </v>
   <v>       0.01049510       0.00370274       0.35274183 </v>
   <v>       0.22222000       0.11111000       0.19748000 </v>
   <v>       0.33333000       0.00000000       0.12250000 </v>
   <v>       0.46067255       0.23267309       0.27663407 </v>
   <v>       0.48370178       0.04249730       0.42758396 </v>
   <v>       0.44444000       0.22222000       0.04751000 </v>
   <v>       0.44659988       0.29466108       0.49827888 </v>
   <v>       0.33217926       0.99515203       0.32659411 </v>
   <v>       0.55556000       0.11111000       0.19748000 </v>
   <v>       0.66667000       0.00000000       0.12250000 </v>
   <v>       0.77420291       0.22422166       0.28621654 </v>
   <v>       0.93620531       0.12696176       0.43029871 </v>
   <v>       0.77778000       0.22222000       0.04751000 </v>
   <v>       0.69939051       0.09676952       0.50574282 </v>
   <v>       0.66816731       0.00005176       0.37006714 </v>
   <v>       0.88889000       0.11111000       0.19748000 </v>
   <v>       0.00000000       0.33333000       0.12250000 </v>
   <v>       0.09853341       0.54740451       0.27493251 </v>
   <v>       0.24331704       0.47734775       0.43011789 </v>
   <v>       0.11111000       0.55556000       0.04751000 </v>
   <v>       0.13412089       0.56633567       0.51222058 </v>
   <v>       0.01487935       0.33684961       0.35400247 </v>
   <v>       0.22222000       0.44444000       0.19748000 </v>
   <v>       0.33333000       0.33333000       0.12250000 </v>
   <v>       0.45845173       0.55663243       0.27498942 </v>
   <v>       0.51409471       0.48661718       0.43089637 </v>
   <v>       0.44444000       0.55556000       0.04751000 </v>
   <v>       0.44149579       0.60785170       0.51194385 </v>
   <v>       0.33169987       0.32909074       0.34886023 </v>
   <v>       0.55556000       0.44444000       0.19748000 </v>
   <v>       0.66667000       0.33333000       0.12250000 </v>
   <v>       0.77223783       0.54810076       0.28293098 </v>
   <v>       0.91603369       0.44507441       0.43055826 </v>
   <v>       0.77778000       0.55556000       0.04751000 </v>
   <v>       0.75213849       0.53961433       0.49681232 </v>
   <v>       0.64139336       0.33840678       0.37975780 </v>
   <v>       0.88889000       0.44444000       0.19748000 </v>
   <v>       0.00000000       0.66667000       0.12250000 </v>
   <v>       0.09946619       0.87974776       0.27562859 </v>
   <v>       0.22292225       0.74434789       0.42162312 </v>
   <v>       0.11111000       0.88889000       0.04751000 </v>
   <v>       0.13528561       0.86806503       0.50798617 </v>
   <v>       0.99947416       0.66268290       0.35501811 </v>
   <v>       0.22222000       0.77778000       0.19748000 </v>
   <v>       0.33333000       0.66667000       0.12250000 </v>
   <v>       0.46669984       0.90080182       0.27441630 </v>
   <v>       0.48627213       0.76088733       0.41983096 </v>
   <v>       0.44444000       0.88889000       0.04751000 </v>
   <v>       0.40722370       0.85927246       0.50354454 </v>
   <v>       0.33340991       0.66403225       0.32259785 </v>
   <v>       0.55556000       0.77778000       0.19748000 </v>
   <v>       0.66667000       0.66667000       0.12250000 </v>
   <v>       0.77870076       0.89466817       0.28011793 </v>
   <v>       0.92414262       0.79677987       0.42987401 </v>
   <v>       0.77778000       0.88889000       0.04751000 </v>
   <v>       0.68842184       0.86425731       0.48279927 </v>
   <v>       0.67348641       0.68415674       0.36566076 </v>
   <v>       0.88889000       0.77778000       0.19748000 </v>
   <v>       0.30665960       0.95285333       0.46596881 </v>
   <v>       0.59002428       0.96075418       0.45670168 </v>
   <v>       0.33088730       0.37239526       0.46853006 </v>
   <v>       0.61117741       0.39490296       0.45949591 </v>
   <v>       0.31488073       0.66363419       0.47159781 </v>
   <v>       0.59703578       0.68635793       0.45304875 </v>
  </varray>
  <varray name="selective"  type="logical" >
   <v type="logical" >  T  T  T </v>
   <v type="logical" >  T  T  T </v>
   <v type="logical" >  F  F  F </v>
   <v type="logical" >  T  T  T </v>
   <v type="logical" >  F  F  F </v>
   <v type="logical" >  T  T  T </v>
   <v type="logical" >  F  F  F </v>
   <v type="logical" >  T  T  T </v>
   <v type="logical" >  T  T  T </v>
   <v type="logical" >  F  F  F </v>
   <v type="logical" >  T  T  T </v>
   <v type="logical" >  F  F  F </v>
   <v type="logical" >  T  T  T </v>
   <v type="logical" >  F  F  F </v>
   <v type="logical" >  T  T  T </v>
   <v type="logical" >  T  T  T </v>
   <v type="logical" >  F  F  F </v>
   <v type="logical" >  T  T  T </v>
   <v type="logical" >  F  F  F </v>
   <v type="logical" >  T  T  T </v>
   <v type="logical" >  F  F  F </v>
   <v type="logical" >  F  F  F </v>
   <v type="logical" >  T  T  T </v>
   <v type="logical" >  T  T  T </v>
   <v type="logical" >  F  F  F </v>
   <v type="logical" >  T  T  T </v>
   <v type="logical" >  T  T  T </v>
   <v type="logical" >  F  F  F </v>
   <v type="logical" >  F  F  F </v>
   <v type="logical" >  T  T  T </v>
   <v type="logical" >  T  T  T </v>
   <v type="logical" >  F  F  F </v>
   <v type="logical" >  T  T  T </v>
   <v type="logical" >  T  T  T </v>
   <v type="logical" >  F  F  F </v>
   <v type="logical" >  F  F  F </v>
   <v type="logical" >  T  T  T </v>
   <v type="logical" >  T  T  T </v>
   <v type="logical" >  F  F  F </v>
   <v type="logical" >  T  T  T </v>
   <v type="logical" >  T  T  T </v>
   <v type="logical" >  F  F  F </v>
   <v type="logical" >  F  F  F </v>
   <v type="logical" >  T  T  T </v>
   <v type="logical" >  T  T  T </v>
   <v type="logical" >  F  F  F </v>
   <v type="logical" >  T  T  T </v>
   <v type="logical" >  T  T  T </v>
   <v type="logical" >  F  F  F </v>
   <v type="logical" >  F  F  F </v>
   <v type="logical" >  T  T  T </v>
   <v type="logical" >  T  T  T </v>
   <v type="logical" >  F  F  F </v>
   <v type="logical" >  T  T  T </v>
   <v type="logical" >  T  T  T </v>
   <v type="logical" >  F  F  F </v>
   <v type="logical" >  F  F  F </v>
   <v type="logical" >  T  T  T </v>
   <v type="logical" >  T  T  T </v>
   <v type="logical" >  F  F  F </v>
   <v type="logical" >  T  T  T </v>
   <v type="logical" >  T  T  T </v>
   <v type="logical" >  F  F  F </v>
   <v type="logical" >  F  F  F </v>
   <v type="logical" >  T  T  T </v>
   <v type="logical" >  T  T  T </v>
   <v type="logical" >  F  F  F </v>
   <v type="logical" >  T  T  T </v>
   <v type="logical" >  T  T  T </v>
   <v type="logical" >  F  F  F </v>
   <v type="logical" >  F  F  F </v>
   <v type="logical" >  T  T  T </v>
   <v type="logical" >  T  T  T </v>
   <v type="logical" >  F  F  F </v>
   <v type="logical" >  T  T  T </v>
   <v type="logical" >  T  T  T </v>
   <v type="logical" >  F  F  F </v>
   <v type="logical" >  F  F  F </v>
   <v type="logical" >  T  T  T </v>
   <v type="logical" >  T  T  T </v>
   <v type="logical" >  F  F  F </v>
   <v type="logical" >  T  T  T </v>
   <v type="logical" >  T  T  T </v>
   <v type="logical" >  F  F  F </v>
   <v type="logical" >  T  T  T </v>
   <v type="logical" >  T  T  T </v>
   <v type="logical" >  T  T  T </v>
   <v type="logical" >  T  T  T </v>
   <v type="logical" >  T  T  T </v>
   <v type="logical" >  T  T  T </v>
  </varray>
  <nose>
   <v>      -3.00000000       0.00000000       0.00010000       0.00010000 </v>
  </nose>
 </structure>
 <calculation>
  <scstep>
   <time name="dav">   20.73   20.83</time>
   <time name="total">   22.22   22.47</time>
   <energy>
    <i name="alphaZ">   1646.47971768 </i>
    <i name="ewald"> 124912.79895465 </i>
    <i name="hartreedc">-173872.25868831 </i>
    <i name="XCdc">   1742.75807676 </i>
    <i name="pawpsdc">  43004.07676644 </i>
    <i name="pawaedc"> -42332.39009753 </i>
    <i name="eentropy">     -0.03069245 </i>
    <i name="bandstr">   2572.27006756 </i>
    <i name="atom">  52924.17385108 </i>
    <i name="e_fr_energy">  10597.87795586 </i>
    <i name="e_wo_entrp">  10597.90864831 </i>
    <i name="e_0_energy">  10597.89330209 </i>
   </energy>
  </scstep>
  <scstep>
   <time name="dav">   22.43   22.44</time>
   <time name="total">   22.43   22.44</time>
   <energy>
    <i name="e_fr_energy">   2717.79070845 </i>
    <i name="e_wo_entrp">   2717.97095189 </i>
    <i name="e_0_energy">   2717.88083017 </i>
   </energy>
  </scstep>
  <scstep>
   <time name="dav">   26.01   26.03</time>
   <time name="total">   26.01   26.03</time>
   <energy>
    <i name="e_fr_energy">   -425.84870766 </i>
    <i name="e_wo_entrp">   -425.82573316 </i>
    <i name="e_0_energy">   -425.83722041 </i>
   </energy>
  </scstep>
  <scstep>
   <time name="dav">   28.82   28.84</time>
   <time name="total">   28.83   28.84</time>
   <energy>
    <i name="e_fr_energy">   -832.21022043 </i>
    <i name="e_wo_entrp">   -832.17417303 </i>
    <i name="e_0_energy">   -832.19219673 </i>
   </energy>
  </scstep>
  <scstep>
   <time name="dav">   32.41   32.43</time>
   <time name="total">   33.68   33.71</time>
   <energy>
    <i name="e_fr_energy">   -850.46136751 </i>
    <i name="e_wo_entrp">   -850.41856917 </i>
    <i name="e_0_energy">   -850.43996834 </i>
   </energy>
  </scstep>
  <scstep>
   <time name="dav">   32.40   32.42</time>
   <time name="total">   35.10   35.12</time>
   <energy>
    <i name="e_fr_energy">  -1417.08679524 </i>
    <i name="e_wo_entrp">  -1416.93904872 </i>
    <i name="e_0_energy">  -1417.01292198 </i>
   </energy>
  </scstep>
  <scstep>
   <time name="dav">   28.29   28.31</time>
   <time name="total">   30.99   31.01</time>
   <energy>
    <i name="e_fr_energy">  -1146.36759222 </i>
    <i name="e_wo_entrp">  -1146.20951837 </i>
    <i name="e_0_energy">  -1146.28855530 </i>
   </energy>
  </scstep>
  <scstep>
   <time name="dav">   31.69   31.71</time>
   <time name="total">   34.38   34.40</time>
   <energy>
    <i name="e_fr_energy">  -1356.23909741 </i>
    <i name="e_wo_entrp">  -1356.17850974 </i>
    <i name="e_0_energy">  -1356.20880358 </i>
   </energy>
  </scstep>
  <scstep>
   <time name="dav">   30.39   30.41</time>
   <time name="total">   33.08   33.10</time>
   <energy>
    <i name="e_fr_energy">  -1095.51246672 </i>
    <i name="e_wo_entrp">  -1095.45357201 </i>
    <i name="e_0_energy">  -1095.48301937 </i>
   </energy>
  </scstep>
  <scstep>
   <time name="dav">   32.05   32.07</time>
   <time name="total">   34.72   34.74</time>
   <energy>
    <i name="e_fr_energy">  -1125.90649164 </i>
    <i name="e_wo_entrp">  -1125.81950266 </i>
    <i name="e_0_energy">  -1125.86299715 </i>
   </energy>
  </scstep>
  <scstep>
   <time name="dav">   29.44   29.45</time>
   <time name="total">   32.11   32.13</time>
   <energy>
    <i name="e_fr_energy">   -845.24048052 </i>
    <i name="e_wo_entrp">   -845.12932680 </i>
    <i name="e_0_energy">   -845.18490366 </i>
   </energy>
  </scstep>
  <scstep>
   <time name="dav">   32.65   32.67</time>
   <time name="total">   35.33   35.35</time>
   <energy>
    <i name="e_fr_energy">   -904.14924902 </i>
    <i name="e_wo_entrp">   -904.05438667 </i>
    <i name="e_0_energy">   -904.10181785 </i>
   </energy>
  </scstep>
  <scstep>
   <time name="dav">   28.86   28.88</time>
   <time name="total">   31.56   31.57</time>
   <energy>
    <i name="e_fr_energy">   -771.15467974 </i>
    <i name="e_wo_entrp">   -771.06514554 </i>
    <i name="e_0_energy">   -771.10991264 </i>
   </energy>
  </scstep>
  <scstep>
   <time name="dav">   28.59   28.61</time>
   <time name="total">   31.26   31.28</time>
   <energy>
    <i name="e_fr_energy">   -854.24492238 </i>
    <i name="e_wo_entrp">   -854.18849451 </i>
    <i name="e_0_energy">   -854.21670845 </i>
   </energy>
  </scstep>
  <scstep>
   <time name="dav">   28.54   28.56</time>
   <time name="total">   31.23   31.25</time>
   <energy>
    <i name="e_fr_energy">   -731.81635883 </i>
    <i name="e_wo_entrp">   -731.75362957 </i>
    <i name="e_0_energy">   -731.78499420 </i>
   </energy>
  </scstep>
  <scstep>
   <time name="dav">   26.85   26.86</time>
   <time name="total">   29.52   29.53</time>
   <energy>
    <i name="e_fr_energy">   -729.64714720 </i>
    <i name="e_wo_entrp">   -729.59236152 </i>
    <i name="e_0_energy">   -729.61975436 </i>
   </energy>
  </scstep>
  <scstep>
   <time name="dav">   28.96   28.97</time>
   <time name="total">   31.66   31.68</time>
   <energy>
    <i name="e_fr_energy">   -681.92699618 </i>
    <i name="e_wo_entrp">   -681.83960642 </i>
    <i name="e_0_energy">   -681.88330130 </i>
   </energy>
  </scstep>
  <scstep>
   <time name="dav">   30.25   30.27</time>
   <time name="total">   32.94   32.96</time>
   <energy>
    <i name="e_fr_energy">   -676.24558379 </i>
    <i name="e_wo_entrp">   -676.17846519 </i>
    <i name="e_0_energy">   -676.21202449 </i>
   </energy>
  </scstep>
  <scstep>
   <time name="dav">   29.93   29.94</time>
   <time name="total">   32.62   32.64</time>
   <energy>
    <i name="e_fr_energy">   -666.16498645 </i>
    <i name="e_wo_entrp">   -666.09602515 </i>
    <i name="e_0_energy">   -666.13050580 </i>
   </energy>
  </scstep>
  <scstep>
   <time name="dav">   29.41   29.43</time>
   <time name="total">   32.10   32.12</time>
   <energy>
    <i name="e_fr_energy">   -660.77600659 </i>
    <i name="e_wo_entrp">   -660.72010945 </i>
    <i name="e_0_energy">   -660.74805802 </i>
   </energy>
  </scstep>
  <scstep>
   <time name="dav">   28.16   28.17</time>
   <time name="total">   30.83   30.85</time>
   <energy>
    <i name="e_fr_energy">   -647.77496201 </i>
    <i name="e_wo_entrp">   -647.71870189 </i>
    <i name="e_0_energy">   -647.74683195 </i>
   </energy>
  </scstep>
  <scstep>
   <time name="dav">   30.46   30.48</time>
   <time name="total">   33.16   33.18</time>
   <energy>
    <i name="e_fr_energy">   -645.80391093 </i>
    <i name="e_wo_entrp">   -645.72037058 </i>
    <i name="e_0_energy">   -645.76214076 </i>
   </energy>
  </scstep>
  <scstep>
   <time name="dav">   31.43   31.44</time>
   <time name="total">   34.11   34.12</time>
   <energy>
    <i name="e_fr_energy">   -645.46232014 </i>
    <i name="e_wo_entrp">   -645.37725568 </i>
    <i name="e_0_energy">   -645.41978791 </i>
   </energy>
  </scstep>
  <scstep>
   <time name="dav">   30.17   30.19</time>
   <time name="total">   32.85   32.87</time>
   <energy>
    <i name="e_fr_energy">   -645.58185864 </i>
    <i name="e_wo_entrp">   -645.49384253 </i>
    <i name="e_0_energy">   -645.53785058 </i>
   </energy>
  </scstep>
  <scstep>
   <time name="dav">   33.61   33.62</time>
   <time name="total">   36.25   36.27</time>
   <energy>
    <i name="e_fr_energy">   -646.53976836 </i>
    <i name="e_wo_entrp">   -646.45628564 </i>
    <i name="e_0_energy">   -646.49802700 </i>
   </energy>
  </scstep>
  <scstep>
   <time name="dav">   28.91   28.93</time>
   <time name="total">   31.60   31.62</time>
   <energy>
    <i name="e_fr_energy">   -647.22328820 </i>
    <i name="e_wo_entrp">   -647.14321442 </i>
    <i name="e_0_energy">   -647.18325131 </i>
   </energy>
  </scstep>
  <scstep>
   <time name="dav">   24.46   24.47</time>
   <time name="total">   27.10   27.11</time>
   <energy>
    <i name="e_fr_energy">   -647.24031133 </i>
    <i name="e_wo_entrp">   -647.16056618 </i>
    <i name="e_0_energy">   -647.20043875 </i>
   </energy>
  </scstep>
  <scstep>
   <time name="dav">   31.86   31.88</time>
   <time name="total">   34.54   34.56</time>
   <energy>
    <i name="e_fr_energy">   -647.27546441 </i>
    <i name="e_wo_entrp">   -647.19926441 </i>
    <i name="e_0_energy">   -647.23736441 </i>
   </energy>
  </scstep>
  <scstep>
   <time name="dav">   28.60   28.61</time>
   <time name="total">   31.27   31.28</time>
   <energy>
    <i name="e_fr_energy">   -647.76877661 </i>
    <i name="e_wo_entrp">   -647.69937020 </i>
    <i name="e_0_energy">   -647.73407340 </i>
   </energy>
  </scstep>
  <scstep>
   <time name="dav">   29.88   29.89</time>
   <time name="total">   32.55   32.57</time>
   <energy>
    <i name="e_fr_energy">   -647.84682802 </i>
    <i name="e_wo_entrp">   -647.78115410 </i>
    <i name="e_0_energy">   -647.81399106 </i>
   </energy>
  </scstep>
  <scstep>
   <time name="dav">   25.94   25.96</time>
   <time name="total">   28.62   28.64</time>
   <energy>
    <i name="e_fr_energy">   -647.83708749 </i>
    <i name="e_wo_entrp">   -647.77143053 </i>
    <i name="e_0_energy">   -647.80425901 </i>
   </energy>
  </scstep>
  <scstep>
   <time name="dav">   28.98   28.99</time>
   <time name="total">   31.64   31.66</time>
   <energy>
    <i name="e_fr_energy">   -647.99873667 </i>
    <i name="e_wo_entrp">   -647.93478942 </i>
    <i name="e_0_energy">   -647.96676304 </i>
   </energy>
  </scstep>
  <scstep>
   <time name="dav">   29.45   29.46</time>
   <time name="total">   32.12   32.14</time>
   <energy>
    <i name="e_fr_energy">   -648.02543037 </i>
    <i name="e_wo_entrp">   -647.96174579 </i>
    <i name="e_0_energy">   -647.99358808 </i>
   </energy>
  </scstep>
  <scstep>
   <time name="dav">   30.01   30.03</time>
   <time name="total">   32.67   32.69</time>
   <energy>
    <i name="e_fr_energy">   -648.13528779 </i>
    <i name="e_wo_entrp">   -648.07584536 </i>
    <i name="e_0_energy">   -648.10556658 </i>
   </energy>
  </scstep>
  <scstep>
   <time name="dav">   31.36   31.38</time>
   <time name="total">   34.01   34.03</time>
   <energy>
    <i name="e_fr_energy">   -647.68724165 </i>
    <i name="e_wo_entrp">   -647.62545914 </i>
    <i name="e_0_energy">   -647.65635039 </i>
   </energy>
  </scstep>
  <scstep>
   <time name="dav">   29.26   29.28</time>
   <time name="total">   31.93   31.95</time>
   <energy>
    <i name="e_fr_energy">   -647.65555139 </i>
    <i name="e_wo_entrp">   -647.59323162 </i>
    <i name="e_0_energy">   -647.62439151 </i>
   </energy>
  </scstep>
  <scstep>
