 running  192 mpi-ranks, on    1 nodes
 distrk:  each k-point on  192 cores,    1 groups
 distr:  one band on    4 cores,   48 groups
 vasp.6.4.3 19Mar24 (build Mar 01 2025 17:53:50) complex                        
  
 POSCAR found type information on POSCAR CeO Ir
 POSCAR found :  3 types and      90 ions
 Reading from existing POTCAR
 scaLAPACK will be used
 -----------------------------------------------------------------------------
|                                                                             |
|           W    W    AA    RRRRR   N    N  II  N    N   GGGG   !!!           |
|           W    W   A  A   R    R  NN   N  II  NN   N  G    G  !!!           |
|           W    W  A    A  R    R  N N  N  II  N N  N  G       !!!           |
|           W WW W  AAAAAA  RRRRR   N  N N  II  N  N N  G  GGG   !            |
|           WW  WW  A    A  R   R   N   NN  II  N   NN  G    G                |
|           W    W  A    A  R    R  N    N  II  N    N   GGGG   !!!           |
|                                                                             |
|     For optimal performance we recommend to set                             |
|       NCORE = 2 up to number-of-cores-per-socket                            |
|     NCORE specifies how many cores store one orbital (NPAR=cpu/NCORE).      |
|     This setting can greatly improve the performance of VASP for DFT.       |
|     The default, NCORE=1 might be grossly inefficient on modern             |
|     multi-core architectures or massively parallel machines. Do your        |
|     own testing! More info at https://www.vasp.at/wiki/index.php/NCORE      |
|     Unfortunately you need to use the default for GW and RPA                |
|     calculations (for HF NCORE is supported but not extensively tested      |
|     yet).                                                                   |
|                                                                             |
 -----------------------------------------------------------------------------

 Reading from existing POTCAR
 -----------------------------------------------------------------------------
|                                                                             |
|               ----> ADVICE to this user running VASP <----                  |
|                                                                             |
|     You have a (more or less) 'large supercell' and for larger cells it     |
|     might be more efficient to use real-space projection operators.         |
|     Therefore, try LREAL= Auto in the INCAR file.                           |
|     Mind: For very accurate calculation, you might also keep the            |
|     reciprocal projection scheme (i.e. LREAL=.FALSE.).                      |
|                                                                             |
 -----------------------------------------------------------------------------

 LDA part: xc-table for (Slater+PW92), standard interpolation
 POSCAR, INCAR and KPOINTS ok, starting setup
 FFT: planning ... GRIDC
 FFT: planning ... GRID_SOFT
 FFT: planning ... GRID
 WAVECAR not read
 WARNING: random wavefunctions but no delay for mixing, default for NELMDL
 entering main loop
       N       E                     dE             d eps       ncg     rms          rms(c)
DAV:   1     0.105978779559E+05    0.10598E+05   -0.27762E+05  9600   0.146E+03
DAV:   2     0.271779070845E+04   -0.78801E+04   -0.65051E+04 10560   0.393E+02
DAV:   3    -0.425848707659E+03   -0.31436E+04   -0.29672E+04 12528   0.229E+02
DAV:   4    -0.832210220430E+03   -0.40636E+03   -0.40146E+03 14208   0.905E+01
DAV:   5    -0.850461367514E+03   -0.18251E+02   -0.18188E+02 16272   0.241E+01    0.154E+02
DAV:   6    -0.141708679524E+04   -0.56663E+03   -0.63953E+03 16128   0.870E+01    0.561E+02
DAV:   7    -0.114636759222E+04    0.27072E+03   -0.74507E+02 13968   0.587E+01    0.449E+02
DAV:   8    -0.135623909741E+04   -0.20987E+03   -0.11190E+03 15792   0.534E+01    0.471E+02
DAV:   9    -0.109551246672E+04    0.26073E+03   -0.27547E+02 15072   0.708E+01    0.410E+02
DAV:  10    -0.112590649164E+04   -0.30394E+02   -0.37860E+03 15936   0.190E+02    0.400E+02
DAV:  11    -0.845240480521E+03    0.28067E+03   -0.12074E+03 14592   0.131E+02    0.265E+02
DAV:  12    -0.904149249024E+03   -0.58909E+02   -0.22161E+03 16368   0.106E+02    0.324E+02
DAV:  13    -0.771154679739E+03    0.13299E+03   -0.45753E+02 14304   0.916E+01    0.179E+02
DAV:  14    -0.854244922383E+03   -0.83090E+02   -0.15257E+03 14064   0.160E+02    0.226E+02
DAV:  15    -0.731816358830E+03    0.12243E+03   -0.37272E+02 14112   0.799E+01    0.136E+02
DAV:  16    -0.729647147197E+03    0.21692E+01   -0.22813E+02 13152   0.967E+01    0.146E+02
DAV:  17    -0.681926996180E+03    0.47720E+02   -0.10838E+02 14352   0.521E+01    0.737E+01
DAV:  18    -0.676245583789E+03    0.56814E+01   -0.36260E+01 15120   0.113E+01    0.736E+01
DAV:  19    -0.666164986453E+03    0.10081E+02   -0.16447E+01 14880   0.833E+00    0.698E+01
DAV:  20    -0.660776006594E+03    0.53890E+01   -0.13497E+01 14592   0.612E+00    0.692E+01
DAV:  21    -0.647774962006E+03    0.13001E+02   -0.18594E+01 13872   0.799E+00    0.671E+01
DAV:  22    -0.645803910931E+03    0.19711E+01   -0.13348E+01 15216   0.614E+00    0.678E+01
DAV:  23    -0.645462320142E+03    0.34159E+00   -0.55781E+00 15744   0.469E+00    0.658E+01
DAV:  24    -0.645581858636E+03   -0.11954E+00   -0.21106E+00 15072   0.236E+00    0.658E+01
DAV:  25    -0.646539768356E+03   -0.95791E+00   -0.58303E-01 16992   0.187E+00    0.656E+01
DAV:  26    -0.647223288196E+03   -0.68352E+00   -0.38461E-01 14400   0.154E+00    0.655E+01
DAV:  27    -0.647240311325E+03   -0.17023E-01   -0.28980E-02 11760   0.292E-01    0.654E+01
DAV:  28    -0.647275464414E+03   -0.35153E-01   -0.77090E-02 15984   0.476E-01    0.653E+01
DAV:  29    -0.647768776606E+03   -0.49331E+00   -0.40644E-01 14160   0.116E+00    0.653E+01
DAV:  30    -0.647846828015E+03   -0.78051E-01   -0.10161E-01 14880   0.668E-01    0.652E+01
DAV:  31    -0.647837087493E+03    0.97405E-02   -0.69248E-03 12672   0.157E-01    0.652E+01
DAV:  32    -0.647998736673E+03   -0.16165E+00   -0.13498E-01 14352   0.731E-01    0.652E+01
DAV:  33    -0.648025430365E+03   -0.26694E-01   -0.12873E-02 14640   0.241E-01    0.652E+01
DAV:  34    -0.648135287793E+03   -0.10986E+00   -0.13008E-01 14928   0.793E-01    0.650E+01
DAV:  35    -0.647687241651E+03    0.44805E+00   -0.49351E-01 15744   0.173E+00    0.649E+01
DAV:  36    -0.647655551389E+03    0.31690E-01   -0.90673E-02 14544   0.724E-01    0.649E+01
DAV:  37    -0.647492552367E+03    0.16300E+00   -0.65236E-02 15120   0.680E-01    0.649E+01
DAV:  38    -0.647893478593E+03   -0.40093E+00   -0.28921E-01 14112   0.140E+00    0.656E+01
DAV:  39    -0.648094159090E+03   -0.20068E+00   -0.53368E-02 14880   0.611E-01    0.657E+01
DAV:  40    -0.647872513850E+03    0.22165E+00   -0.15870E-01 15744   0.687E-01    0.652E+01
DAV:  41    -0.648717951420E+03   -0.84544E+00   -0.20439E+00 16128   0.276E+00    0.697E+01
DAV:  42    -0.649147704781E+03   -0.42975E+00   -0.13018E+00 15312   0.406E+00    0.694E+01
DAV:  43    -0.648805302115E+03    0.34240E+00   -0.58879E-01 15600   0.186E+00    0.685E+01
DAV:  44    -0.648632189096E+03    0.17311E+00   -0.23054E+00 14736   0.447E+00    0.685E+01
DAV:  45    -0.648928581544E+03   -0.29639E+00   -0.51842E-01 16176   0.167E+00    0.683E+01
DAV:  46    -0.648654531202E+03    0.27405E+00   -0.18495E-01 16656   0.812E-01    0.682E+01
DAV:  47    -0.648181105996E+03    0.47343E+00   -0.69634E-01 14448   0.170E+00    0.676E+01
DAV:  48    -0.647773550866E+03    0.40756E+00   -0.94847E-01 16704   0.231E+00    0.672E+01
DAV:  49    -0.647756859802E+03    0.16691E-01   -0.27222E-01 16080   0.117E+00    0.672E+01
DAV:  50    -0.647769975738E+03   -0.13116E-01   -0.37035E-02 14304   0.378E-01    0.672E+01
DAV:  51    -0.653808319265E+03   -0.60383E+01   -0.38134E+02 14304   0.493E+01    0.133E+02
DAV:  52    -0.592533967620E+03    0.61274E+02   -0.29714E+02 16176   0.343E+01    0.552E+01
DAV:  53    -0.595394524271E+03   -0.28606E+01   -0.10757E+02 15792   0.265E+01    0.453E+01
DAV:  54    -0.603544730414E+03   -0.81502E+01   -0.32401E+01 16896   0.134E+01    0.430E+01
DAV:  55    -0.612736129905E+03   -0.91914E+01   -0.22424E+01 14352   0.112E+01    0.401E+01
DAV:  56    -0.617232539602E+03   -0.44964E+01   -0.96657E+01 16032   0.180E+01    0.336E+01
DAV:  57    -0.622097002751E+03   -0.48645E+01   -0.22838E+01 16272   0.971E+00    0.304E+01
DAV:  58    -0.621190246967E+03    0.90676E+00   -0.93608E+00 14112   0.557E+00    0.290E+01
DAV:  59    -0.618083387582E+03    0.31069E+01   -0.46601E+00 15120   0.491E+00    0.284E+01
DAV:  60    -0.616921187936E+03    0.11622E+01   -0.10827E+01 15888   0.457E+00    0.301E+01
DAV:  61    -0.618120104106E+03   -0.11989E+01   -0.14081E+01 14736   0.623E+00    0.289E+01
DAV:  62    -0.617271692608E+03    0.84841E+00   -0.86536E+00 16992   0.486E+00    0.265E+01
DAV:  63    -0.616910740051E+03    0.36095E+00   -0.27576E+00 14832   0.455E+00    0.257E+01
DAV:  64    -0.617094747754E+03   -0.18401E+00   -0.98070E-01 14928   0.132E+00    0.259E+01
DAV:  65    -0.616787532317E+03    0.30722E+00   -0.13363E-01 15888   0.700E-01    0.261E+01
DAV:  66    -0.616499218828E+03    0.28831E+00   -0.29713E+00 15504   0.336E+00    0.260E+01
DAV:  67    -0.611982792844E+03    0.45164E+01   -0.26260E+00 15456   0.337E+00    0.282E+01
DAV:  68    -0.608603140924E+03    0.33797E+01   -0.64377E-01 15456   0.164E+00    0.296E+01
DAV:  69    -0.610793720652E+03   -0.21906E+01   -0.20639E-01 15216   0.105E+00    0.287E+01
DAV:  70    -0.610714865093E+03    0.78856E-01   -0.19014E-02 12576   0.235E-01    0.288E+01
DAV:  71    -0.620505457576E+03   -0.97906E+01   -0.84492E+00 14400   0.795E+00    0.214E+01
DAV:  72    -0.614740131039E+03    0.57653E+01   -0.31289E+00 15552   0.468E+00    0.226E+01
DAV:  73    -0.614929611219E+03   -0.18948E+00   -0.38504E+00 15888   0.251E+00    0.235E+01
DAV:  74    -0.615539738319E+03   -0.61013E+00   -0.75657E-01 15120   0.197E+00    0.217E+01
DAV:  75    -0.617306729117E+03   -0.17670E+01   -0.13669E+00 14448   0.263E+00    0.195E+01
DAV:  76    -0.617387815729E+03   -0.81087E-01   -0.81741E+01 13920   0.134E+01    0.212E+01
DAV:  77    -0.613466659272E+03    0.39212E+01   -0.13141E+01 15120   0.642E+00    0.193E+01
DAV:  78    -0.611843131649E+03    0.16235E+01   -0.45506E+00 13968   0.270E+00    0.199E+01
DAV:  79    -0.610405756277E+03    0.14374E+01   -0.58358E-01 14832   0.132E+00    0.204E+01
DAV:  80    -0.610408365000E+03   -0.26087E-02   -0.71818E-02 12672   0.422E-01    0.202E+01
DAV:  81    -0.625398864826E+03   -0.14990E+02   -0.32935E+01 13632   0.120E+01    0.180E+01
DAV:  82    -0.626036257084E+03   -0.63739E+00   -0.32859E+00 14592   0.314E+00    0.169E+01
DAV:  83    -0.626242759596E+03   -0.20650E+00   -0.10596E+00 14832   0.192E+00    0.157E+01
DAV:  84    -0.626830416552E+03   -0.58766E+00   -0.18726E+00 14640   0.211E+00    0.158E+01
DAV:  85    -0.627044700963E+03   -0.21428E+00   -0.69938E-01 15072   0.168E+00    0.146E+01
DAV:  86    -0.626202609182E+03    0.84209E+00   -0.42189E+00 15312   0.419E+00    0.144E+01
DAV:  87    -0.626247332347E+03   -0.44723E-01   -0.23431E+00 15744   0.225E+00    0.129E+01
DAV:  88    -0.626527277769E+03   -0.27995E+00   -0.20306E+00 14928   0.181E+00    0.127E+01
DAV:  89    -0.626781919181E+03   -0.25464E+00   -0.48045E-01 15024   0.102E+00    0.123E+01
DAV:  90    -0.626838596455E+03   -0.56677E-01   -0.22161E-01 14400   0.818E-01
 -----------------------------------------------------------------------------
|                                                                             |
|           W    W    AA    RRRRR   N    N  II  N    N   GGGG   !!!           |
|           W    W   A  A   R    R  NN   N  II  NN   N  G    G  !!!           |
|           W    W  A    A  R    R  N N  N  II  N N  N  G       !!!           |
|           W WW W  AAAAAA  RRRRR   N  N N  II  N  N N  G  GGG   !            |
|           WW  WW  A    A  R   R   N   NN  II  N   NN  G    G                |
|           W    W  A    A  R    R  N    N  II  N    N   GGGG   !!!           |
|                                                                             |
|     The electronic self-consistency was not achieved in the given           |
|     number of steps (NELM). The forces and other quantities evaluated       |
|     might not be reliable so examine the results carefully. If you find     |
|     spurious results, we suggest increasing NELM, if you were close to      |
|     convergence or switching to a different ALGO or adjusting the           |
|     density mixing parameters otherwise.                                    |
|                                                                             |
 -----------------------------------------------------------------------------

   1 F= -.62683860E+03 E0= -.62682064E+03  d E =-.626839E+03  mag=    25.4579
 curvature:   0.00 expect dE= 0.000E+00 dE for cont linesearch  0.000E+00
 trial: gam= 0.00000 g(F)=  0.793E+00 g(S)=  0.000E+00 ort = 0.000E+00 (trialstep = 0.100E+01)
 search vector abs. value=  0.793E+00
 bond charge predicted
       N       E                     dE             d eps       ncg     rms          rms(c)
DAV:   1    -0.627189700760E+03   -0.40778E+00   -0.20683E+02 11088   0.215E+01    0.131E+01
DAV:   2    -0.626962434268E+03    0.22727E+00   -0.28568E+01 15120   0.103E+01    0.199E+01
DAV:   3    -0.625982573198E+03    0.97986E+00   -0.61976E+00 15984   0.652E+00    0.103E+01
DAV:   4    -0.626640981405E+03   -0.65841E+00   -0.82930E+00 14304   0.461E+00    0.138E+01
DAV:   5    -0.627061450979E+03   -0.42047E+00   -0.62604E+00 15936   0.223E+00    0.969E+00
DAV:   6    -0.627083225376E+03   -0.21774E-01   -0.76987E-01 15936   0.176E+00    0.775E+00
DAV:   7    -0.627212255147E+03   -0.12903E+00   -0.55318E-01 14256   0.160E+00    0.548E+00
DAV:   8    -0.627980048980E+03   -0.76779E+00   -0.15503E+00 14976   0.265E+00    0.122E+01
DAV:   9    -0.627920561418E+03    0.59488E-01   -0.87478E-01 15552   0.228E+00    0.658E+00
DAV:  10    -0.628055738182E+03   -0.13518E+00   -0.51514E-01 14928   0.866E-01    0.859E+00
DAV:  11    -0.628182700305E+03   -0.12696E+00   -0.17583E-01 16464   0.104E+00    0.686E+00
DAV:  12    -0.628246176320E+03   -0.63476E-01   -0.19270E-01 14208   0.905E-01    0.621E+00
DAV:  13    -0.628268224347E+03   -0.22048E-01   -0.11059E-01 15408   0.424E-01    0.604E+00
DAV:  14    -0.628253986502E+03    0.14238E-01   -0.57383E-03 15552   0.100E-01    0.604E+00
DAV:  15    -0.628251158663E+03    0.28278E-02   -0.77121E-02 15312   0.238E-01    0.621E+00
DAV:  16    -0.628263867254E+03   -0.12709E-01   -0.10654E-01 14880   0.284E-01    0.635E+00
DAV:  17    -0.628294539236E+03   -0.30672E-01   -0.28701E-01 14304   0.446E-01    0.641E+00
DAV:  18    -0.628285096219E+03    0.94430E-02   -0.13059E-01 14928   0.416E-01    0.609E+00
DAV:  19    -0.628272667874E+03    0.12428E-01   -0.23475E-02 14016   0.215E-01    0.620E+00
DAV:  20    -0.628289868618E+03   -0.17201E-01   -0.15295E-01 14640   0.386E-01    0.640E+00
DAV:  21    -0.628312770290E+03   -0.22902E-01   -0.40811E-02 15120   0.243E-01    0.629E+00
DAV:  22    -0.628307983672E+03    0.47866E-02   -0.13521E-02 15456   0.157E-01    0.619E+00
DAV:  23    -0.628302506788E+03    0.54769E-02   -0.72872E-02 14496   0.279E-01    0.603E+00
DAV:  24    -0.628312631156E+03   -0.10124E-01   -0.41717E-03 14160   0.817E-02    0.606E+00
DAV:  25    -0.628315819961E+03   -0.31888E-02   -0.76026E-03 14976   0.734E-02    0.605E+00
DAV:  26    -0.628296168839E+03    0.19651E-01   -0.82297E-02 14256   0.246E-01    0.582E+00
DAV:  27    -0.628279348378E+03    0.16820E-01   -0.90584E-02 15840   0.342E-01    0.540E+00
DAV:  28    -0.628400556762E+03   -0.12121E+00   -0.16267E+00 14304   0.877E-01    0.575E+00
DAV:  29    -0.628562348724E+03   -0.16179E+00   -0.11552E-01 15408   0.556E-01    0.564E+00
DAV:  30    -0.628589077501E+03   -0.26729E-01   -0.37748E-02 14592   0.319E-01    0.551E+00
DAV:  31    -0.628606907881E+03   -0.17830E-01   -0.49793E-02 15072   0.315E-01    0.453E+00
DAV:  32    -0.628636470646E+03   -0.29563E-01   -0.32457E-01 14352   0.311E-01    0.318E+00
DAV:  33    -0.628761762533E+03   -0.12529E+00   -0.18027E-01 15216   0.358E-01    0.401E+00
DAV:  34    -0.628792257241E+03   -0.30495E-01   -0.10067E-01 14832   0.254E-01    0.306E+00
DAV:  35    -0.628833054159E+03   -0.40797E-01   -0.91373E-02 15408   0.201E-01    0.308E+00
DAV:  36    -0.628836240013E+03   -0.31859E-02   -0.38410E-03 13056   0.584E-02    0.265E+00
DAV:  37    -0.628932965937E+03   -0.96726E-01   -0.13552E-01 14640   0.245E-01    0.392E+00
DAV:  38    -0.628931647587E+03    0.13184E-02   -0.26788E-03 12672   0.695E-02    0.393E+00
DAV:  39    -0.628929692966E+03    0.19546E-02   -0.48060E-03 15552   0.475E-02    0.396E+00
DAV:  40    -0.628931619772E+03   -0.19268E-02   -0.21089E-02 14304   0.984E-02    0.398E+00
DAV:  41    -0.629007336652E+03   -0.75717E-01   -0.21403E-01 14592   0.357E-01    0.421E+00
DAV:  42    -0.629056259726E+03   -0.48923E-01   -0.13381E-01 15264   0.320E-01    0.438E+00
DAV:  43    -0.629057585827E+03   -0.13261E-02   -0.67003E-03 14112   0.960E-02    0.441E+00
DAV:  44    -0.629064015126E+03   -0.64293E-02   -0.14126E-03 15936   0.441E-02    0.443E+00
DAV:  45    -0.629040069907E+03    0.23945E-01   -0.60591E-02 13632   0.223E-01    0.277E+00
DAV:  46    -0.629059975447E+03   -0.19906E-01   -0.59845E-02 15408   0.227E-01    0.147E+00
DAV:  47    -0.629069780786E+03   -0.98053E-02   -0.91121E-02 15024   0.284E-01    0.914E-01
DAV:  48    -0.629140580884E+03   -0.70800E-01   -0.15706E-01 14592   0.317E-01    0.296E+00
DAV:  49    -0.629139518281E+03    0.10626E-02   -0.12862E-01 14688   0.164E-01    0.225E+00
DAV:  50    -0.629172356507E+03   -0.32838E-01   -0.36065E-01 14640   0.195E-01    0.485E+00
DAV:  51    -0.629151946636E+03    0.20410E-01   -0.25584E-02 14208   0.161E-01    0.304E+00
DAV:  52    -0.629226327393E+03   -0.74381E-01   -0.17031E-01 13680   0.304E-01    0.496E+00
DAV:  53    -0.629226270405E+03    0.56988E-04   -0.31166E-03 14496   0.759E-02    0.517E+00
DAV:  54    -0.629220015842E+03    0.62546E-02   -0.92705E-03 13968   0.106E-01    0.507E+00
DAV:  55    -0.629219870675E+03    0.14517E-03   -0.35499E-04 13008   0.273E-02    0.507E+00
DAV:  56    -0.629220443302E+03   -0.57263E-03   -0.73797E-04 14880   0.317E-02    0.507E+00
DAV:  57    -0.629218941780E+03    0.15015E-02   -0.45998E-01 13248   0.435E-01    0.381E+00
DAV:  58    -0.629197674729E+03    0.21267E-01   -0.11589E-01 14112   0.295E-01    0.374E+00
DAV:  59    -0.629194908590E+03    0.27661E-02   -0.17851E-02 14256   0.952E-02    0.378E+00
DAV:  60    -0.629192788145E+03    0.21204E-02   -0.22089E-02 13824   0.849E-02    0.375E+00
DAV:  61    -0.629191675206E+03    0.11129E-02   -0.17443E-01 13248   0.252E-01    0.367E+00
DAV:  62    -0.629182431626E+03    0.92436E-02   -0.24888E-01 13680   0.289E-01    0.364E+00
DAV:  63    -0.629173219026E+03    0.92126E-02   -0.72003E-03 13872   0.912E-02    0.360E+00
DAV:  64    -0.629173199932E+03    0.19094E-04   -0.42185E-03 16080   0.474E-02    0.360E+00
DAV:  65    -0.629176477524E+03   -0.32776E-02   -0.25635E-03 14592   0.336E-02    0.363E+00
DAV:  66    -0.629175820582E+03    0.65694E-03   -0.30203E-02 14784   0.131E-01    0.347E+00
DAV:  67    -0.629172726587E+03    0.30940E-02   -0.28853E-02 14784   0.159E-01    0.344E+00
DAV:  68    -0.629173898251E+03   -0.11717E-02   -0.74255E-04 12816   0.366E-02    0.347E+00
DAV:  69    -0.629171656504E+03    0.22417E-02   -0.33953E-03 14448   0.400E-02    0.335E+00
DAV:  70    -0.629172516283E+03   -0.85978E-03   -0.15316E-03 15120   0.335E-02    0.328E+00
DAV:  71    -0.629168397935E+03    0.41183E-02   -0.27321E-02 13872   0.134E-01    0.304E+00
DAV:  72    -0.629173240161E+03   -0.48422E-02   -0.26888E-02 14496   0.162E-01    0.296E+00
DAV:  73    -0.629195414086E+03   -0.22174E-01   -0.11515E-01 14160   0.239E-01    0.374E+00
DAV:  74    -0.629197510511E+03   -0.20964E-02   -0.80152E-03 13488   0.714E-02    0.375E+00
DAV:  75    -0.629197907054E+03   -0.39654E-03   -0.26621E-03 14736   0.378E-02    0.375E+00
DAV:  76    -0.629205276147E+03   -0.73691E-02   -0.31428E-02 14352   0.116E-01    0.379E+00
DAV:  77    -0.629171870424E+03    0.33406E-01   -0.16193E-01 14064   0.280E-01    0.361E+00
DAV:  78    -0.629167490440E+03    0.43800E-02   -0.20653E-02 13920   0.986E-02    0.364E+00
DAV:  79    -0.629137933457E+03    0.29557E-01   -0.26057E-01 13632   0.279E-01    0.156E+00
DAV:  80    -0.629149151682E+03   -0.11218E-01   -0.53003E-02 14592   0.167E-01    0.235E+00
DAV:  81    -0.629149127732E+03    0.23950E-04   -0.46909E-02 13776   0.170E-01    0.208E+00
DAV:  82    -0.629212249803E+03   -0.63122E-01   -0.34062E+00 13392   0.101E+00    0.415E+00
DAV:  83    -0.629238669972E+03   -0.26420E-01   -0.83677E-02 13968   0.240E-01    0.411E+00
DAV:  84    -0.629225705230E+03    0.12965E-01   -0.77677E-03 16512   0.771E-02    0.407E+00
DAV:  85    -0.629194939648E+03    0.30766E-01   -0.80717E-02 13392   0.201E-01    0.393E+00
DAV:  86    -0.629164618215E+03    0.30321E-01   -0.38822E-01 13392   0.356E-01    0.977E-01
DAV:  87    -0.629176585089E+03   -0.11967E-01   -0.48339E-01 13680   0.452E-01    0.322E+00
DAV:  88    -0.629160305565E+03    0.16280E-01   -0.95226E-02 14400   0.308E-01    0.234E+00
DAV:  89    -0.629160433528E+03   -0.12796E-03   -0.31680E-01 13248   0.394E-01    0.226E+00
DAV:  90    -0.629174354058E+03   -0.13921E-01   -0.21354E-01 15024   0.315E-01
 -----------------------------------------------------------------------------
|                                                                             |
|           W    W    AA    RRRRR   N    N  II  N    N   GGGG   !!!           |
|           W    W   A  A   R    R  NN   N  II  NN   N  G    G  !!!           |
|           W    W  A    A  R    R  N N  N  II  N N  N  G       !!!           |
|           W WW W  AAAAAA  RRRRR   N  N N  II  N  N N  G  GGG   !            |
|           WW  WW  A    A  R   R   N   NN  II  N   NN  G    G                |
|           W    W  A    A  R    R  N    N  II  N    N   GGGG   !!!           |
|                                                                             |
|     The electronic self-consistency was not achieved in the given           |
|     number of steps (NELM). The forces and other quantities evaluated       |
|     might not be reliable so examine the results carefully. If you find     |
|     spurious results, we suggest increasing NELM, if you were close to      |
|     convergence or switching to a different ALGO or adjusting the           |
|     density mixing parameters otherwise.                                    |
|                                                                             |
 -----------------------------------------------------------------------------

   2 F= -.62917435E+03 E0= -.62915252E+03  d E =-.233576E+01  mag=    20.1890
 trial-energy change:   -2.335758  1 .order   -0.330714   -0.792784    0.131357
 step:   0.9898(harm=  0.8579)  dis= 0.05272  next Energy=  -629.175024 (dE=-0.234E+01)
 bond charge predicted
       N       E                     dE             d eps       ncg     rms          rms(c)
DAV:   1    -0.629171287859E+03   -0.10854E-01   -0.30401E-02 11808   0.245E-01    0.325E+00
DAV:   2    -0.629309227610E+03   -0.13794E+00   -0.50416E+00 12672   0.286E+00    0.984E+00
DAV:   3    -0.629541822814E+03   -0.23260E+00   -0.48591E-01 13392   0.158E+00    0.751E+00
DAV:   4    -0.629419275920E+03    0.12255E+00   -0.12696E-01 13200   0.650E-01    0.705E+00
DAV:   5    -0.629370367468E+03    0.48908E-01   -0.21886E-02 15456   0.296E-01    0.677E+00
DAV:   6    -0.629336931759E+03    0.33436E-01   -0.17378E-02 13584   0.281E-01    0.646E+00
DAV:   7    -0.629333611704E+03    0.33201E-02   -0.10667E-02 14688   0.205E-01    0.621E+00
DAV:   8    -0.629332611978E+03    0.99973E-03   -0.23320E-03 14448   0.800E-02    0.616E+00
DAV:   9    -0.629317746573E+03    0.14865E-01   -0.93825E-03 13920   0.193E-01    0.595E+00
DAV:  10    -0.629298871399E+03    0.18875E-01   -0.11974E-02 13296   0.196E-01    0.570E+00
DAV:  11    -0.629297630592E+03    0.12408E-02   -0.20948E-03 15888   0.773E-02    0.570E+00
DAV:  12    -0.629290607798E+03    0.70228E-02   -0.27403E-02 13872   0.275E-01    0.553E+00
DAV:  13    -0.629302580005E+03   -0.11972E-01   -0.97611E-03 13776   0.145E-01    0.565E+00
DAV:  14    -0.629297300451E+03    0.52796E-02   -0.13454E-02 13680   0.222E-01    0.548E+00
DAV:  15    -0.629284970160E+03    0.12330E-01   -0.44489E-02 14400   0.335E-01    0.531E+00
DAV:  16    -0.629284936672E+03    0.33488E-04   -0.42248E-03 12720   0.121E-01    0.521E+00
DAV:  17    -0.629258399251E+03    0.26537E-01   -0.47009E-02 13872   0.420E-01    0.376E+00
DAV:  18    -0.629257634299E+03    0.76495E-03   -0.25379E-02 14592   0.284E-01    0.238E+00
DAV:  19    -0.629260056614E+03   -0.24223E-02   -0.36245E-02 15648   0.246E-01    0.111E+00
DAV:  20    -0.629267242475E+03   -0.71859E-02   -0.23150E-02 14304   0.217E-01    0.169E+00
DAV:  21    -0.629268393815E+03   -0.11513E-02   -0.25546E-02 13776   0.205E-01    0.176E+00
DAV:  22    -0.629272575126E+03   -0.41813E-02   -0.10042E-02 13920   0.189E-01    0.189E+00
DAV:  23    -0.629272465758E+03    0.10937E-03   -0.18117E-03 14784   0.728E-02    0.174E+00
DAV:  24    -0.629274965521E+03   -0.24998E-02   -0.21327E-02 14832   0.199E-01    0.189E+00
DAV:  25    -0.629275495073E+03   -0.52955E-03   -0.30764E-03 15024   0.820E-02    0.182E+00
DAV:  26    -0.629275172306E+03    0.32277E-03   -0.42069E-04 17040   0.272E-02    0.183E+00
DAV:  27    -0.629274969429E+03    0.20288E-03   -0.12609E-04 15456   0.150E-02    0.183E+00
DAV:  28    -0.629279108756E+03   -0.41393E-02   -0.23300E-02 14496   0.147E-01    0.190E+00
DAV:  29    -0.629278069527E+03    0.10392E-02   -0.14488E-03 14496   0.423E-02    0.189E+00
DAV:  30    -0.629273229781E+03    0.48397E-02   -0.20631E-02 14352   0.110E-01    0.168E+00
DAV:  31    -0.629270410483E+03    0.28193E-02   -0.22178E-02 13968   0.287E-01    0.909E-01
DAV:  32    -0.629268715871E+03    0.16946E-02   -0.98921E-03 15744   0.140E-01    0.926E-01
DAV:  33    -0.629265912132E+03    0.28037E-02   -0.15278E-02 14928   0.130E-01    0.109E+00
DAV:  34    -0.629265088396E+03    0.82374E-03   -0.43276E-03 15024   0.665E-02    0.140E+00
DAV:  35    -0.629264574034E+03    0.51436E-03   -0.39736E-04 13728   0.281E-02    0.137E+00
DAV:  36    -0.629264629749E+03   -0.55715E-04   -0.18798E-04 16464   0.130E-02    0.152E+00
DAV:  37    -0.629264513524E+03    0.11622E-03   -0.18661E-03 14928   0.576E-02    0.183E+00
DAV:  38    -0.629265057525E+03   -0.54400E-03   -0.32782E-03 15264   0.633E-02    0.242E+00
DAV:  39    -0.629264760430E+03    0.29710E-03   -0.18810E-03 14832   0.694E-02    0.265E+00
DAV:  40    -0.629259761072E+03    0.49994E-02   -0.13609E-02 15120   0.184E-01    0.117E+00
DAV:  41    -0.629259939541E+03   -0.17847E-03   -0.65553E-03 15024   0.952E-02    0.101E+00
DAV:  42    -0.629260807952E+03   -0.86841E-03   -0.79726E-04 16320   0.359E-02    0.969E-01
DAV:  43    -0.629261125267E+03   -0.31731E-03   -0.91293E-05 14880   0.111E-02    0.101E+00
DAV:  44    -0.629260825496E+03    0.29977E-03   -0.20566E-04 14352   0.119E-02    0.992E-01
DAV:  45    -0.629261116165E+03   -0.29067E-03   -0.16756E-04 13536   0.877E-03    0.109E+00
DAV:  46    -0.629261306001E+03   -0.18984E-03   -0.14832E-03 14112   0.367E-02    0.896E-01
DAV:  47    -0.629260722264E+03    0.58374E-03   -0.36166E-03 14688   0.559E-02    0.102E+00
DAV:  48    -0.629260407797E+03    0.31447E-03   -0.38718E-03 13872   0.417E-02    0.807E-01
DAV:  49    -0.629259626274E+03    0.78152E-03   -0.28074E-03 13872   0.751E-02    0.893E-01
DAV:  50    -0.629258443483E+03    0.11828E-02   -0.40489E-03 15072   0.697E-02    0.835E-01
DAV:  51    -0.629258035552E+03    0.40793E-03   -0.10716E-03 14256   0.329E-02    0.910E-01
DAV:  52    -0.629258809066E+03   -0.77351E-03   -0.33860E-02 13824   0.175E-01    0.137E+00
DAV:  53    -0.629257926792E+03    0.88227E-03   -0.45024E-03 14304   0.560E-02    0.726E-01
DAV:  54    -0.629261319756E+03   -0.33930E-02   -0.23770E-02 13584   0.978E-02    0.251E+00
DAV:  55    -0.629257746295E+03    0.35735E-02   -0.42974E-03 14064   0.605E-02    0.140E+00
DAV:  56    -0.629265147002E+03   -0.74007E-02   -0.47369E-02 13584   0.160E-01    0.356E+00
DAV:  57    -0.629320922633E+03   -0.55776E-01   -0.19811E-01 14016   0.364E-01    0.668E+00
DAV:  58    -0.629295365043E+03    0.25558E-01   -0.18233E-02 13872   0.157E-01    0.623E+00
DAV:  59    -0.629298654965E+03   -0.32899E-02   -0.16647E-03 14496   0.489E-02    0.631E+00
DAV:  60    -0.629293214912E+03    0.54401E-02   -0.17398E-03 14400   0.336E-02    0.614E+00
DAV:  61    -0.629288109014E+03    0.51059E-02   -0.86749E-03 13920   0.618E-02    0.588E+00
DAV:  62    -0.629289493989E+03   -0.13850E-02   -0.11129E-03 14016   0.582E-02    0.582E+00
DAV:  63    -0.629288253688E+03    0.12403E-02   -0.27483E-04 14400   0.174E-02    0.579E+00
DAV:  64    -0.629287605506E+03    0.64818E-03   -0.12649E-04 15552   0.799E-03    0.577E+00
DAV:  65    -0.629278151310E+03    0.94542E-02   -0.94906E-03 14304   0.647E-02    0.547E+00
DAV:  66    -0.629270786846E+03    0.73645E-02   -0.18627E-02 14208   0.135E-01    0.509E+00
DAV:  67    -0.629280380773E+03   -0.95939E-02   -0.11615E-02 14256   0.727E-02    0.538E+00
DAV:  68    -0.629272369767E+03    0.80110E-02   -0.84716E-03 15216   0.551E-02    0.508E+00
DAV:  69    -0.629273158286E+03   -0.78852E-03   -0.13262E-03 13968   0.349E-02    0.507E+00
DAV:  70    -0.629268741572E+03    0.44167E-02   -0.10520E-02 13920   0.655E-02    0.480E+00
DAV:  71    -0.629268708873E+03    0.32699E-04   -0.96950E-03 14352   0.644E-02    0.469E+00
DAV:  72    -0.629257092215E+03    0.11617E-01   -0.11503E-02 14112   0.800E-02    0.263E+00
DAV:  73    -0.629258865932E+03   -0.17737E-02   -0.33571E-03 13968   0.568E-02    0.187E+00
DAV:  74    -0.629260932194E+03   -0.20663E-02   -0.62056E-04 13440   0.348E-02    0.188E+00
DAV:  75    -0.629261045034E+03   -0.11284E-03   -0.74630E-05 14208   0.131E-02    0.182E+00
DAV:  76    -0.629261065564E+03   -0.20530E-04   -0.11888E-04 14352   0.679E-03    0.170E+00
DAV:  77    -0.629261205643E+03   -0.14008E-03   -0.10153E-02 14640   0.502E-02    0.124E+00
DAV:  78    -0.629261461774E+03   -0.25613E-03   -0.18277E-03 13824   0.594E-02    0.110E+00
DAV:  79    -0.629262132445E+03   -0.67067E-03   -0.79204E-04 14640   0.281E-02    0.120E+00
DAV:  80    -0.629263428627E+03   -0.12962E-02   -0.73019E-03 14544   0.850E-02    0.150E+00
DAV:  81    -0.629263060018E+03    0.36861E-03   -0.12672E-02 14880   0.695E-02    0.143E+00
DAV:  82    -0.629263319374E+03   -0.25936E-03   -0.17229E-02 14352   0.101E-01    0.130E+00
DAV:  83    -0.629265112943E+03   -0.17936E-02   -0.53464E-03 14832   0.797E-02    0.146E+00
DAV:  84    -0.629265359751E+03   -0.24681E-03   -0.35378E-03 14640   0.506E-02    0.134E+00
DAV:  85    -0.629266864816E+03   -0.15051E-02   -0.78338E-03 14304   0.739E-02    0.141E+00
DAV:  86    -0.629266622698E+03    0.24212E-03   -0.54241E-04 14640   0.218E-02    0.138E+00
DAV:  87    -0.629269776112E+03   -0.31534E-02   -0.26736E-02 14016   0.128E-01    0.203E+00
DAV:  88    -0.629269203122E+03    0.57299E-03   -0.88673E-04 13344   0.353E-02    0.213E+00
DAV:  89    -0.629268966688E+03    0.23643E-03   -0.19370E-04 16896   0.118E-02    0.217E+00
DAV:  90    -0.629268706619E+03    0.26007E-03   -0.94826E-05 14112   0.845E-03
 -----------------------------------------------------------------------------
|                                                                             |
|           W    W    AA    RRRRR   N    N  II  N    N   GGGG   !!!           |
|           W    W   A  A   R    R  NN   N  II  NN   N  G    G  !!!           |
|           W    W  A    A  R    R  N N  N  II  N N  N  G       !!!           |
|           W WW W  AAAAAA  RRRRR   N  N N  II  N  N N  G  GGG   !            |
|           WW  WW  A    A  R   R   N   NN  II  N   NN  G    G                |
|           W    W  A    A  R    R  N    N  II  N    N   GGGG   !!!           |
|                                                                             |
|     The electronic self-consistency was not achieved in the given           |
|     number of steps (NELM). The forces and other quantities evaluated       |
|     might not be reliable so examine the results carefully. If you find     |
|     spurious results, we suggest increasing NELM, if you were close to      |
|     convergence or switching to a different ALGO or adjusting the           |
|     density mixing parameters otherwise.                                    |
|                                                                             |
 -----------------------------------------------------------------------------

   3 F= -.62926871E+03 E0= -.62923261E+03  d E =-.243011E+01  mag=    20.1888
 curvature:  -0.06 expect dE=-0.360E-01 dE for cont linesearch -0.635E-02
 ZBRENT: interpolating
 opt :   0.7242  next Energy=  -629.307308 (dE=-0.247E+01)
 bond charge predicted
       N       E                     dE             d eps       ncg     rms          rms(c)
DAV:   1    -0.629291218156E+03   -0.22251E-01   -0.14514E+01  9600   0.558E+00    0.347E+00
DAV:   2    -0.629515947403E+03   -0.22473E+00   -0.30301E+00 16128   0.302E+00    0.744E+00
DAV:   3    -0.629438064847E+03    0.77883E-01   -0.61060E-01 14448   0.182E+00    0.439E+00
DAV:   4    -0.629388855259E+03    0.49210E-01   -0.19225E-01 14496   0.927E-01    0.404E+00
DAV:   5    -0.629374483962E+03    0.14371E-01   -0.17646E-01 16896   0.698E-01    0.358E+00
DAV:   6    -0.629347409278E+03    0.27075E-01   -0.11517E-01 15264   0.902E-01    0.387E+00
DAV:   7    -0.629350551567E+03   -0.31423E-02   -0.30141E-02 14064   0.292E-01    0.388E+00
DAV:   8    -0.629371445200E+03   -0.20894E-01   -0.73159E-03 15744   0.190E-01    0.415E+00
DAV:   9    -0.629332453036E+03    0.38992E-01   -0.51829E-02 14112   0.467E-01    0.191E+00
DAV:  10    -0.629376296865E+03   -0.43844E-01   -0.10489E-01 16272   0.257E-01    0.666E+00
DAV:  11    -0.629370112995E+03    0.61839E-02   -0.37408E-03 11712   0.127E-01    0.669E+00
DAV:  12    -0.629367068683E+03    0.30443E-02   -0.58826E-04 17328   0.478E-02    0.666E+00
DAV:  13    -0.629362972756E+03    0.40959E-02   -0.86289E-04 15792   0.702E-02    0.661E+00
DAV:  14    -0.629361854104E+03    0.11187E-02   -0.27245E-03 16512   0.134E-01    0.668E+00
DAV:  15    -0.629357367982E+03    0.44861E-02   -0.62829E-04 15600   0.569E-02    0.655E+00
DAV:  16    -0.629359112508E+03   -0.17445E-02   -0.16548E-03 15264   0.105E-01    0.656E+00
DAV:  17    -0.629358955314E+03    0.15719E-03   -0.45937E-04 14640   0.532E-02    0.658E+00
DAV:  18    -0.629358253591E+03    0.70172E-03   -0.28655E-04 14592   0.390E-02    0.658E+00
DAV:  19    -0.629355098497E+03    0.31551E-02   -0.11504E-03 15504   0.867E-02    0.646E+00
DAV:  20    -0.629362346883E+03   -0.72484E-02   -0.14599E-03 16032   0.811E-02    0.663E+00
DAV:  21    -0.629358821080E+03    0.35258E-02   -0.71503E-02 14496   0.720E-01    0.657E+00
DAV:  22    -0.629351025153E+03    0.77959E-02   -0.62791E-01 15792   0.559E-01    0.197E+00
DAV:  23    -0.629415321528E+03   -0.64296E-01   -0.15775E-01 15072   0.107E+00    0.160E+00
DAV:  24    -0.629439447169E+03   -0.24126E-01   -0.65062E-02 16416   0.539E-01    0.118E+00
DAV:  25    -0.629451548837E+03   -0.12102E-01   -0.29313E-02 15360   0.414E-01    0.154E+00
DAV:  26    -0.629452402858E+03   -0.85402E-03   -0.63867E-03 14400   0.129E-01    0.159E+00
DAV:  27    -0.629443697710E+03    0.87051E-02   -0.51006E-03 14688   0.185E-01    0.140E+00
DAV:  28    -0.629581804104E+03   -0.13811E+00   -0.54725E-01 14928   0.906E-01    0.123E+01
DAV:  29    -0.629663867254E+03   -0.82063E-01   -0.33732E-02 13632   0.254E-01    0.134E+01
DAV:  30    -0.629659585258E+03    0.42820E-02   -0.11830E-02 17424   0.813E-02    0.128E+01
DAV:  31    -0.629586122257E+03    0.73463E-01   -0.42529E-02 15744   0.134E-01    0.123E+01
DAV:  32    -0.629568942365E+03    0.17180E-01   -0.88421E-03 14592   0.452E-02    0.122E+01
DAV:  33    -0.629593147911E+03   -0.24206E-01   -0.62744E-02 16464   0.796E-02    0.125E+01
DAV:  34    -0.629600065163E+03   -0.69173E-02   -0.85244E-02 15168   0.974E-02    0.136E+01
DAV:  35    -0.629598953555E+03    0.11116E-02   -0.53355E-04 12000   0.359E-02    0.137E+01
DAV:  36    -0.629593386184E+03    0.55674E-02   -0.74125E-03 15888   0.382E-02    0.133E+01
DAV:  37    -0.629593827016E+03   -0.44083E-03   -0.26825E-04 13104   0.148E-02    0.132E+01
DAV:  38    -0.629595143843E+03   -0.13168E-02   -0.11307E-04 12288   0.727E-03    0.133E+01
DAV:  39    -0.629602717527E+03   -0.75737E-02   -0.52506E-02 15936   0.694E-02    0.147E+01
DAV:  40    -0.629611842575E+03   -0.91250E-02   -0.12722E-02 13104   0.608E-02    0.154E+01
DAV:  41    -0.629611459046E+03    0.38353E-03   -0.73780E-04 13056   0.229E-02    0.153E+01
DAV:  42    -0.629762139571E+03   -0.15068E+00   -0.61388E-02 15024   0.203E-01    0.191E+01
DAV:  43    -0.629757299088E+03    0.48405E-02   -0.83175E-03 12864   0.726E-02    0.195E+01
DAV:  44    -0.629765016004E+03   -0.77169E-02   -0.48195E-04 14064   0.303E-02    0.196E+01
DAV:  45    -0.629767780337E+03   -0.27643E-02   -0.64393E-03 17712   0.324E-02    0.196E+01
DAV:  46    -0.629758514302E+03    0.92660E-02   -0.18204E-03 14544   0.244E-02    0.194E+01
DAV:  47    -0.629425047830E+03    0.33347E+00   -0.24010E+00 14208   0.871E-01    0.202E+00
DAV:  48    -0.629466893906E+03   -0.41846E-01   -0.14873E-01 14688   0.451E-01    0.746E+00
DAV:  49    -0.629484146552E+03   -0.17253E-01   -0.68334E-02 14208   0.159E-01    0.990E+00
DAV:  50    -0.629500504715E+03   -0.16358E-01   -0.24405E-02 13920   0.102E-01    0.118E+01
DAV:  51    -0.629447999500E+03    0.52505E-01   -0.11216E-01 15600   0.169E-01    0.764E+00
DAV:  52    -0.629414217745E+03    0.33782E-01   -0.14180E+00 15552   0.671E-01    0.153E+00
DAV:  53    -0.629402153076E+03    0.12065E-01   -0.21980E-02 16320   0.337E-01    0.139E+00
DAV:  54    -0.629394397998E+03    0.77551E-02   -0.25753E-02 16560   0.268E-01    0.851E+00
DAV:  55    -0.629387523193E+03    0.68748E-02   -0.38835E-03 13200   0.150E-01    0.802E+00
DAV:  56    -0.629385781790E+03    0.17414E-02   -0.91010E-04 16992   0.645E-02    0.758E+00
DAV:  57    -0.629397253813E+03   -0.11472E-01   -0.10605E+00 15744   0.298E-01    0.141E+00
DAV:  58    -0.629393284945E+03    0.39689E-02   -0.10714E-02 14640   0.243E-01    0.141E+00
DAV:  59    -0.629374265155E+03    0.19020E-01   -0.48102E-03 15600   0.171E-01    0.141E+00
DAV:  60    -0.629363717947E+03    0.10547E-01   -0.70554E-03 15936   0.148E-01    0.185E+00
DAV:  61    -0.629366488434E+03   -0.27705E-02   -0.22072E-02 16560   0.836E-02    0.403E+00
DAV:  62    -0.629376640762E+03   -0.10152E-01   -0.34063E-02 15744   0.337E-01    0.845E+00
DAV:  63    -0.629362270361E+03    0.14370E-01   -0.45644E-03 14544   0.131E-01    0.731E+00
DAV:  64    -0.629357662150E+03    0.46082E-02   -0.12554E-03 16896   0.418E-02    0.636E+00
DAV:  65    -0.629360018091E+03   -0.23559E-02   -0.12666E-03 16128   0.740E-02    0.593E+00
DAV:  66    -0.629358198469E+03    0.18196E-02   -0.54245E-04 15696   0.340E-02    0.542E+00
DAV:  67    -0.629396428821E+03   -0.38230E-01   -0.29009E-02 16080   0.196E-01    0.976E+00
DAV:  68    -0.629393466959E+03    0.29619E-02   -0.14143E-03 12912   0.755E-02    0.978E+00
DAV:  69    -0.629382653018E+03    0.10814E-01   -0.24874E-03 16224   0.120E-01    0.922E+00
DAV:  70    -0.629381805153E+03    0.84786E-03   -0.29164E-04 15024   0.420E-02    0.908E+00
DAV:  71    -0.629381261811E+03    0.54334E-03   -0.67627E-04 16560   0.656E-02    0.885E+00
DAV:  72    -0.629356230263E+03    0.25032E-01   -0.45753E-01 16560   0.419E-01    0.212E+00
DAV:  73    -0.629365891701E+03   -0.96614E-02   -0.85138E-03 14640   0.200E-01    0.259E+00
DAV:  74    -0.629365251812E+03    0.63989E-03   -0.96181E-03 15696   0.149E-01    0.417E+00
DAV:  75    -0.629365443559E+03   -0.19175E-03   -0.10416E-03 14688   0.785E-02    0.404E+00
DAV:  76    -0.629375799605E+03   -0.10356E-01   -0.61224E-03 15792   0.115E-01    0.629E+00
DAV:  77    -0.629372078936E+03    0.37207E-02   -0.26669E-03 16224   0.152E-01    0.651E+00
DAV:  78    -0.629365760214E+03    0.63187E-02   -0.25065E-03 16176   0.880E-02    0.525E+00
DAV:  79    -0.629365424430E+03    0.33578E-03   -0.10923E-03 15312   0.946E-02    0.539E+00
DAV:  80    -0.629365733209E+03   -0.30878E-03   -0.16728E-04 13344   0.258E-02    0.543E+00
DAV:  81    -0.629365202186E+03    0.53102E-03   -0.73030E-05 17952   0.121E-02    0.527E+00
DAV:  82    -0.629373683306E+03   -0.84811E-02   -0.87335E-01 16992   0.370E-01    0.119E+00
DAV:  83    -0.629379504516E+03   -0.58212E-02   -0.46668E-03 14928   0.168E-01    0.118E+00
DAV:  84    -0.629366121388E+03    0.13383E-01   -0.24735E-03 15312   0.102E-01    0.105E+00
DAV:  85    -0.629361982956E+03    0.41384E-02   -0.12511E-02 15888   0.815E-02    0.224E+00
DAV:  86    -0.629369839526E+03   -0.78566E-02   -0.29980E-02 15072   0.885E-02    0.514E+00
DAV:  87    -0.629357923893E+03    0.11916E-01   -0.59833E-03 15984   0.143E-01    0.404E+00
DAV:  88    -0.629379737184E+03   -0.21813E-01   -0.18101E-02 15888   0.718E-02    0.762E+00
DAV:  89    -0.629369261140E+03    0.10476E-01   -0.10866E-03 12768   0.617E-02    0.698E+00
DAV:  90    -0.629370826351E+03   -0.15652E-02   -0.28780E-04 17184   0.484E-02
 -----------------------------------------------------------------------------
|                                                                             |
|           W    W    AA    RRRRR   N    N  II  N    N   GGGG   !!!           |
|           W    W   A  A   R    R  NN   N  II  NN   N  G    G  !!!           |
|           W    W  A    A  R    R  N N  N  II  N N  N  G       !!!           |
|           W WW W  AAAAAA  RRRRR   N  N N  II  N  N N  G  GGG   !            |
|           WW  WW  A    A  R   R   N   NN  II  N   NN  G    G                |
|           W    W  A    A  R    R  N    N  II  N    N   GGGG   !!!           |
|                                                                             |
|     The electronic self-consistency was not achieved in the given           |
|     number of steps (NELM). The forces and other quantities evaluated       |
|     might not be reliable so examine the results carefully. If you find     |
|     spurious results, we suggest increasing NELM, if you were close to      |
|     convergence or switching to a different ALGO or adjusting the           |
|     density mixing parameters otherwise.                                    |
|                                                                             |
 -----------------------------------------------------------------------------

   4 F= -.62937083E+03 E0= -.62933955E+03  d E =-.253223E+01  mag=    20.5637
 curvature:  -0.36 expect dE=-0.156E+00 dE for cont linesearch -0.343E-01
 ZBRENT: bisectioning
 opt :   0.3621  next Energy=  -629.465840 (dE=-0.263E+01)
 bond charge predicted
       N       E                     dE             d eps       ncg     rms          rms(c)
DAV:   1    -0.629366410254E+03    0.28509E-02   -0.26882E+01  9600   0.757E+00    0.679E+00
DAV:   2    -0.629025647661E+03    0.34076E+00   -0.11627E+01 14400   0.923E+00    0.100E+01
DAV:   3    -0.630112466074E+03   -0.10868E+01   -0.47235E+00 14640   0.423E+00    0.731E+00
DAV:   4    -0.629769943522E+03    0.34252E+00   -0.60017E-01 13920   0.147E+00    0.569E+00
DAV:   5    -0.629611722381E+03    0.15822E+00   -0.50231E-01 14160   0.145E+00    0.567E+00
DAV:   6    -0.629439578349E+03    0.17214E+00   -0.11759E+00 14304   0.221E+00    0.282E+00
DAV:   7    -0.629462939419E+03   -0.23361E-01   -0.15873E-01 17424   0.718E-01    0.315E+00
DAV:   8    -0.629470711587E+03   -0.77722E-02   -0.26509E-02 14832   0.434E-01    0.208E+00
DAV:   9    -0.629493445803E+03   -0.22734E-01   -0.31905E-02 15888   0.407E-01    0.276E+00
DAV:  10    -0.629494561326E+03   -0.11155E-02   -0.42208E-03 14832   0.127E-01    0.224E+00
DAV:  11    -0.629502098996E+03   -0.75377E-02   -0.14431E-02 15216   0.208E-01    0.160E+00
DAV:  12    -0.629507156096E+03   -0.50571E-02   -0.27300E-02 14736   0.321E-01    0.124E+00
DAV:  13    -0.629509393399E+03   -0.22373E-02   -0.17195E-02 15456   0.221E-01    0.990E-01
DAV:  14    -0.629511502374E+03   -0.21090E-02   -0.97637E-03 15120   0.216E-01    0.625E-01
DAV:  15    -0.629516223027E+03   -0.47207E-02   -0.39599E-03 14544   0.129E-01    0.627E-01
DAV:  16    -0.629518308185E+03   -0.20852E-02   -0.25855E-03 14640   0.833E-02    0.363E-01
DAV:  17    -0.629520704901E+03   -0.23967E-02   -0.17207E-03 14784   0.942E-02    0.214E-01
DAV:  18    -0.629522661745E+03   -0.19568E-02   -0.10023E-03 14832   0.551E-02    0.269E-01
DAV:  19    -0.629524100617E+03   -0.14389E-02   -0.83375E-04 15168   0.422E-02    0.195E-01
DAV:  20    -0.629525567504E+03   -0.14669E-02   -0.91598E-04 14016   0.457E-02    0.136E-01
DAV:  21    -0.629526107724E+03   -0.54022E-03   -0.49818E-04 13776   0.312E-02    0.118E-01
DAV:  22    -0.629526533742E+03   -0.42602E-03   -0.23799E-04 14496   0.249E-02    0.123E-01
DAV:  23    -0.629526903336E+03   -0.36959E-03   -0.35190E-04 13920   0.237E-02    0.110E-01
DAV:  24    -0.629527179675E+03   -0.27634E-03   -0.26297E-04 13680   0.219E-02    0.713E-02
DAV:  25    -0.629527305410E+03   -0.12573E-03   -0.69402E-05 13392   0.127E-02    0.571E-02
DAV:  26    -0.629527415334E+03   -0.10992E-03   -0.61836E-05 13968   0.122E-02    0.418E-02
DAV:  27    -0.629527474853E+03   -0.59519E-04   -0.33163E-05 14352   0.100E-02    0.326E-02
DAV:  28    -0.629527505930E+03   -0.31077E-04   -0.13665E-05 13584   0.565E-03    0.306E-02
DAV:  29    -0.629527521930E+03   -0.15999E-04   -0.62348E-06 10416   0.376E-03    0.275E-02
DAV:  30    -0.629527527281E+03   -0.53517E-05   -0.19344E-06  8304   0.247E-03    0.276E-02
DAV:  31    -0.629527528154E+03   -0.87263E-06   -0.47033E-07  6672   0.158E-03
   5 F= -.62952753E+03 E0= -.62949413E+03  d E =-.268893E+01  mag=    21.0398
 curvature:  -1.00 expect dE=-0.169E+00 dE for cont linesearch -0.610E-02
 ZBRENT: interpolating
 opt :   0.2633  next Energy=  -629.531630 (dE=-0.269E+01)
 bond charge predicted
       N       E                     dE             d eps       ncg     rms          rms(c)
DAV:   1    -0.629526834297E+03    0.69298E-03   -0.20034E+00  9600   0.207E+00    0.506E-01
DAV:   2    -0.629532602065E+03   -0.57678E-02   -0.58639E-02 14784   0.606E-01    0.155E+00
DAV:   3    -0.629530987393E+03    0.16147E-02   -0.76215E-03 16464   0.244E-01    0.640E-01
DAV:   4    -0.629531467650E+03   -0.48026E-03   -0.15603E-03 13344   0.615E-02    0.636E-01
DAV:   5    -0.629531445069E+03    0.22580E-04   -0.18689E-04 17760   0.179E-02    0.648E-01
DAV:   6    -0.629531540780E+03   -0.95710E-04   -0.21538E-04 15408   0.367E-02    0.706E-01
DAV:   7    -0.629531408920E+03    0.13186E-03   -0.17733E-03 13344   0.690E-02    0.739E-01
DAV:   8    -0.629531626247E+03   -0.21733E-03   -0.43956E-03 12768   0.103E-01    0.810E-01
DAV:   9    -0.629531971051E+03   -0.34480E-03   -0.28286E-03 13008   0.991E-02    0.929E-01
DAV:  10    -0.629531660939E+03    0.31011E-03   -0.85202E-04 15888   0.544E-02    0.842E-01
DAV:  11    -0.629531374301E+03    0.28664E-03   -0.52672E-04 15936   0.447E-02    0.691E-01
DAV:  12    -0.629531313585E+03    0.60716E-04   -0.54688E-04 13872   0.400E-02    0.579E-01
DAV:  13    -0.629531318251E+03   -0.46654E-05   -0.37184E-04 13536   0.348E-02    0.499E-01
DAV:  14    -0.629531297507E+03    0.20743E-04   -0.49399E-04 12912   0.323E-02    0.447E-01
DAV:  15    -0.629531271683E+03    0.25824E-04   -0.31344E-04 13632   0.230E-02    0.402E-01
DAV:  16    -0.629531280951E+03   -0.92682E-05   -0.12595E-04 13344   0.179E-02    0.368E-01
DAV:  17    -0.629531247169E+03    0.33782E-04   -0.90862E-05 13536   0.146E-02    0.332E-01
DAV:  18    -0.629531225932E+03    0.21238E-04   -0.84700E-05 12480   0.137E-02    0.300E-01
DAV:  19    -0.629531191984E+03    0.33947E-04   -0.12156E-04 12576   0.174E-02    0.258E-01
DAV:  20    -0.629531116286E+03    0.75698E-04   -0.19430E-04 12144   0.215E-02    0.201E-01
DAV:  21    -0.629531031633E+03    0.84653E-04   -0.19112E-04 13248   0.209E-02    0.145E-01
DAV:  22    -0.629530942078E+03    0.89555E-04   -0.19419E-04 12624   0.220E-02    0.896E-02
DAV:  23    -0.629530884979E+03    0.57099E-04   -0.15307E-04 14496   0.183E-02    0.422E-02
DAV:  24    -0.629530875154E+03    0.98256E-05   -0.80059E-05 13680   0.115E-02    0.311E-02
DAV:  25    -0.629530889710E+03   -0.14556E-04   -0.26228E-05 15792   0.681E-03    0.255E-02
DAV:  26    -0.629530907239E+03   -0.17529E-04   -0.57690E-06  8976   0.345E-03    0.246E-02
DAV:  27    -0.629530939275E+03   -0.32035E-04   -0.30564E-06  7776   0.265E-03    0.210E-02
DAV:  28    -0.629530993629E+03   -0.54355E-04   -0.57469E-06 10800   0.344E-03    0.205E-02
DAV:  29    -0.629531025882E+03   -0.32252E-04   -0.44317E-06 10176   0.361E-03    0.209E-02
DAV:  30    -0.629531032060E+03   -0.61788E-05   -0.11436E-06  6528   0.208E-03    0.209E-02
DAV:  31    -0.629531041035E+03   -0.89746E-05   -0.97441E-07  6480   0.183E-03    0.213E-02
DAV:  32    -0.629531051615E+03   -0.10580E-04   -0.68997E-07  6720   0.149E-03    0.201E-02
DAV:  33    -0.629531063163E+03   -0.11548E-04   -0.74212E-07  6864   0.151E-03    0.193E-02
DAV:  34    -0.629531073693E+03   -0.10530E-04   -0.84257E-07  6960   0.161E-03    0.173E-02
DAV:  35    -0.629531078303E+03   -0.46098E-05   -0.48107E-07  6336   0.147E-03    0.154E-02
DAV:  36    -0.629531082081E+03   -0.37776E-05   -0.63975E-07  6816   0.153E-03    0.128E-02
DAV:  37    -0.629531085379E+03   -0.32981E-05   -0.71297E-07  6768   0.168E-03    0.107E-02
DAV:  38    -0.629531086572E+03   -0.11928E-05   -0.50660E-07  6240   0.162E-03    0.958E-03
DAV:  39    -0.629531087078E+03   -0.50657E-06   -0.69089E-07  6912   0.157E-03
   6 F= -.62953109E+03 E0= -.62949793E+03  d E =-.269249E+01  mag=    21.0912
 curvature:  -0.68 expect dE=-0.892E-01 dE for cont linesearch -0.170E-05
 trial: gam= 0.16850 g(F)=  0.132E+00 g(S)=  0.000E+00 ort =-0.141E-02 (trialstep = 0.853E+00)
 search vector abs. value=  0.154E+00
 bond charge predicted
       N       E                     dE             d eps       ncg     rms          rms(c)
DAV:   1    -0.629519856953E+03    0.11230E-01   -0.26832E+01  9600   0.733E+00    0.264E+00
DAV:   2    -0.629660181446E+03   -0.14032E+00   -0.11097E+00 14688   0.223E+00    0.669E+00
DAV:   3    -0.629591540957E+03    0.68640E-01   -0.28496E-01 16896   0.119E+00    0.163E+00
DAV:   4    -0.629594665973E+03   -0.31250E-02   -0.54135E-02 14880   0.400E-01    0.116E+00
DAV:   5    -0.629599305413E+03   -0.46394E-02   -0.56258E-02 16992   0.414E-01    0.173E+00
DAV:   6    -0.629597847784E+03    0.14576E-02   -0.45119E-02 15072   0.321E-01    0.155E+00
DAV:   7    -0.629596011584E+03    0.18362E-02   -0.17648E-02 14448   0.247E-01    0.889E-01
DAV:   8    -0.629597953785E+03   -0.19422E-02   -0.67783E-03 15216   0.152E-01    0.106E+00
DAV:   9    -0.629596991778E+03    0.96201E-03   -0.20916E-03 14448   0.979E-02    0.425E-01
DAV:  10    -0.629597440534E+03   -0.44876E-03   -0.10160E-03 15360   0.555E-02    0.271E-01
DAV:  11    -0.629597752012E+03   -0.31148E-03   -0.60183E-04 15552   0.379E-02    0.326E-01
DAV:  12    -0.629597986789E+03   -0.23478E-03   -0.48216E-04 14784   0.342E-02    0.299E-01
DAV:  13    -0.629598209780E+03   -0.22299E-03   -0.63914E-04 14448   0.439E-02    0.151E-01
DAV:  14    -0.629598395203E+03   -0.18542E-03   -0.42876E-04 14544   0.322E-02    0.837E-02
DAV:  15    -0.629598530813E+03   -0.13561E-03   -0.19473E-04 13968   0.209E-02    0.756E-02
DAV:  16    -0.629598615636E+03   -0.84823E-04   -0.15156E-04 13920   0.172E-02    0.665E-02
DAV:  17    -0.629598672960E+03   -0.57324E-04   -0.10306E-04 14352   0.143E-02    0.753E-02
DAV:  18    -0.629598702028E+03   -0.29068E-04   -0.13826E-04 14112   0.117E-02    0.566E-02
DAV:  19    -0.629598720582E+03   -0.18555E-04   -0.32920E-05 12720   0.799E-03    0.482E-02
DAV:  20    -0.629598729648E+03   -0.90653E-05   -0.33240E-05 12288   0.609E-03    0.289E-02
DAV:  21    -0.629598738953E+03   -0.93055E-05   -0.15900E-05 10848   0.445E-03    0.187E-02
DAV:  22    -0.629598745060E+03   -0.61074E-05   -0.31863E-06  8256   0.280E-03    0.953E-03
DAV:  23    -0.629598752266E+03   -0.72055E-05   -0.36362E-06  7824   0.237E-03    0.107E-02
DAV:  24    -0.629598757680E+03   -0.54142E-05   -0.23265E-06  7152   0.198E-03    0.765E-03
DAV:  25    -0.629598760853E+03   -0.31724E-05   -0.73050E-07  6432   0.148E-03    0.646E-03
DAV:  26    -0.629598763908E+03   -0.30554E-05   -0.45456E-07  6288   0.115E-03    0.380E-03
DAV:  27    -0.629598767305E+03   -0.33972E-05   -0.39454E-07  6336   0.101E-03    0.348E-03
DAV:  28    -0.629598769670E+03   -0.23643E-05   -0.22748E-07  6240   0.903E-04    0.234E-03
DAV:  29    -0.629598772185E+03   -0.25156E-05   -0.21706E-07  6240   0.816E-04    0.206E-03
DAV:  30    -0.629598773612E+03   -0.14266E-05   -0.12782E-07  6240   0.733E-04    0.151E-03
DAV:  31    -0.629598775464E+03   -0.18521E-05   -0.12036E-07  6240   0.636E-04    0.130E-03
DAV:  32    -0.629598777325E+03   -0.18611E-05   -0.14080E-07  6240   0.643E-04    0.178E-03
DAV:  33    -0.629598778308E+03   -0.98273E-06   -0.88619E-08  6240   0.596E-04
   7 F= -.62959878E+03 E0= -.62956495E+03  d E =-.676912E-01  mag=    20.9164
 trial-energy change:   -0.067691  1 .order   -0.066727   -0.112489   -0.020965
 step:   1.0341(harm=  1.0480)  dis= 0.01849  next Energy=  -629.601018 (dE=-0.699E-01)
 bond charge predicted
       N       E                     dE             d eps       ncg     rms          rms(c)
DAV:   1    -0.629597706042E+03    0.10713E-02   -0.12134E+00  9600   0.156E+00    0.681E-01
DAV:   2    -0.629608743765E+03   -0.11038E-01   -0.53598E-02 14832   0.530E-01    0.323E+00
DAV:   3    -0.629599380963E+03    0.93628E-02   -0.15597E-02 15696   0.339E-01    0.394E-01
DAV:   4    -0.629600816794E+03   -0.14358E-02   -0.41837E-03 15024   0.108E-01    0.310E-01
DAV:   5    -0.629600990659E+03   -0.17386E-03   -0.25271E-03 16272   0.890E-02    0.414E-01
DAV:   6    -0.629601157118E+03   -0.16646E-03   -0.18472E-03 15408   0.691E-02    0.611E-01
DAV:   7    -0.629600754319E+03    0.40280E-03   -0.11037E-03 15312   0.638E-02    0.151E-01
DAV:   8    -0.629600973381E+03   -0.21906E-03   -0.57696E-04 14928   0.382E-02    0.285E-01
DAV:   9    -0.629600917808E+03    0.55573E-04   -0.17150E-04 15168   0.292E-02    0.111E-01
DAV:  10    -0.629600951220E+03   -0.33412E-04   -0.52869E-05 14640   0.113E-02    0.670E-02
DAV:  11    -0.629600972886E+03   -0.21667E-04   -0.12684E-05 14016   0.621E-03    0.581E-02
DAV:  12    -0.629601000915E+03   -0.28028E-04   -0.19115E-05 13200   0.675E-03    0.586E-02
DAV:  13    -0.629601017892E+03   -0.16978E-04   -0.21209E-05 13968   0.699E-03    0.403E-02
DAV:  14    -0.629601031099E+03   -0.13207E-04   -0.13890E-05 12768   0.568E-03    0.270E-02
DAV:  15    -0.629601036989E+03   -0.58892E-05   -0.74395E-06 10128   0.376E-03    0.180E-02
DAV:  16    -0.629601043039E+03   -0.60507E-05   -0.46373E-06  9264   0.310E-03    0.176E-02
DAV:  17    -0.629601048825E+03   -0.57861E-05   -0.93622E-06 11232   0.373E-03    0.171E-02
DAV:  18    -0.629601050577E+03   -0.17513E-05   -0.39869E-06  8736   0.286E-03    0.864E-03
DAV:  19    -0.629601052122E+03   -0.15454E-05   -0.16510E-06  6576   0.194E-03    0.562E-03
DAV:  20    -0.629601053265E+03   -0.11431E-05   -0.72291E-07  6432   0.156E-03    0.390E-03
DAV:  21    -0.629601054099E+03   -0.83348E-06   -0.36804E-07  6240   0.117E-03
   8 F= -.62960105E+03 E0= -.62956712E+03  d E =-.699670E-01  mag=    20.8796
 curvature:  -0.61 expect dE=-0.976E-01 dE for cont linesearch -0.551E-06
 trial: gam= 1.22169 g(F)=  0.160E+00 g(S)=  0.000E+00 ort = 0.374E-03 (trialstep = 0.350E+00)
 search vector abs. value=  0.391E+00
 bond charge predicted
       N       E                     dE             d eps       ncg     rms          rms(c)
DAV:   1    -0.629611697377E+03   -0.10644E-01   -0.11823E+01  9600   0.500E+00    0.932E-01
DAV:   2    -0.629659372475E+03   -0.47675E-01   -0.36653E-01 14304   0.119E+00    0.410E+00
DAV:   3    -0.629648048915E+03    0.11324E-01   -0.40490E-02 16032   0.404E-01    0.266E+00
DAV:   4    -0.629643763788E+03    0.42851E-02   -0.95817E-03 14832   0.210E-01    0.154E+00
DAV:   5    -0.629646925938E+03   -0.31621E-02   -0.79312E-03 16800   0.201E-01    0.211E+00
DAV:   6    -0.629646039420E+03    0.88652E-03   -0.17505E-02 14928   0.206E-01    0.187E+00
DAV:   7    -0.629643378896E+03    0.26605E-02   -0.10947E-02 15072   0.198E-01    0.608E-01
DAV:   8    -0.629644045447E+03   -0.66655E-03   -0.55501E-03 14784   0.123E-01    0.315E-01
DAV:   9    -0.629644291711E+03   -0.24626E-03   -0.12142E-03 14208   0.629E-02    0.212E-01
DAV:  10    -0.629644366799E+03   -0.75088E-04   -0.53687E-04 15456   0.355E-02    0.182E-01
DAV:  11    -0.629644543816E+03   -0.17702E-03   -0.29608E-04 15024   0.297E-02    0.188E-01
DAV:  12    -0.629644756089E+03   -0.21227E-03   -0.37521E-04 15120   0.294E-02    0.115E-01
DAV:  13    -0.629644891947E+03   -0.13586E-03   -0.18305E-04 14304   0.206E-02    0.752E-02
DAV:  14    -0.629645005516E+03   -0.11357E-03   -0.11650E-04 15024   0.155E-02    0.758E-02
DAV:  15    -0.629645068950E+03   -0.63434E-04   -0.12034E-04 14736   0.131E-02    0.560E-02
DAV:  16    -0.629645135078E+03   -0.66128E-04   -0.58765E-05 13584   0.985E-03    0.715E-02
DAV:  17    -0.629645188570E+03   -0.53492E-04   -0.75954E-05 14064   0.101E-02    0.769E-02
DAV:  18    -0.629645213716E+03   -0.25146E-04   -0.34233E-05 13200   0.888E-03    0.468E-02
DAV:  19    -0.629645228705E+03   -0.14989E-04   -0.14608E-05 13488   0.537E-03    0.415E-02
DAV:  20    -0.629645238958E+03   -0.10253E-04   -0.16611E-05 12384   0.497E-03    0.372E-02
DAV:  21    -0.629645243613E+03   -0.46550E-05   -0.15006E-05 11904   0.486E-03    0.264E-02
DAV:  22    -0.629645246385E+03   -0.27715E-05   -0.89537E-06 10992   0.403E-03    0.186E-02
DAV:  23    -0.629645247622E+03   -0.12375E-05   -0.80655E-06 10608   0.379E-03    0.133E-02
DAV:  24    -0.629645248909E+03   -0.12873E-05   -0.29956E-06  8928   0.270E-03    0.800E-03
DAV:  25    -0.629645250952E+03   -0.20421E-05   -0.15805E-06  6480   0.194E-03    0.504E-03
DAV:  26    -0.629645253087E+03   -0.21350E-05   -0.63048E-07  6240   0.156E-03    0.424E-03
DAV:  27    -0.629645253996E+03   -0.90987E-06   -0.34584E-07  6288   0.122E-03
   9 F= -.62964525E+03 E0= -.62961094E+03  d E =-.441999E-01  mag=    20.7703
 trial-energy change:   -0.044200  1 .order   -0.044159   -0.056289   -0.032028
 step:   0.8128(harm=  0.8128)  dis= 0.02842  next Energy=  -629.666353 (dE=-0.653E-01)
 bond charge predicted
       N       E                     dE             d eps       ncg     rms          rms(c)
DAV:   1    -0.629607712985E+03    0.37540E-01   -0.20603E+01  9600   0.659E+00    0.120E+00
DAV:   2    -0.629681228273E+03   -0.73515E-01   -0.63670E-01 14160   0.154E+00    0.402E+00
DAV:   3    -0.629669899819E+03    0.11328E-01   -0.68494E-02 16224   0.504E-01    0.264E+00
DAV:   4    -0.629664355854E+03    0.55440E-02   -0.16144E-02 14640   0.286E-01    0.138E+00
DAV:   5    -0.629666765689E+03   -0.24098E-02   -0.13963E-02 16896   0.258E-01    0.193E+00
DAV:   6    -0.629667253982E+03   -0.48829E-03   -0.24140E-02 14640   0.234E-01    0.197E+00
DAV:   7    -0.629663729964E+03    0.35240E-02   -0.17670E-02 15264   0.241E-01    0.714E-01
DAV:   8    -0.629664425886E+03   -0.69592E-03   -0.97243E-03 15072   0.156E-01    0.485E-01
DAV:   9    -0.629664399533E+03    0.26353E-04   -0.15919E-03 13776   0.784E-02    0.297E-01
DAV:  10    -0.629664488954E+03   -0.89421E-04   -0.11132E-03 15648   0.519E-02    0.329E-01
DAV:  11    -0.629664487397E+03    0.15565E-05   -0.22009E-04 13344   0.217E-02    0.350E-01
DAV:  12    -0.629664473341E+03    0.14057E-04   -0.33092E-04 13776   0.197E-02    0.287E-01
DAV:  13    -0.629664512681E+03   -0.39340E-04   -0.29094E-04 14160   0.271E-02    0.266E-01
DAV:  14    -0.629664641316E+03   -0.12863E-03   -0.74121E-04 14256   0.358E-02    0.248E-01
DAV:  15    -0.629664759799E+03   -0.11848E-03   -0.20309E-03 13536   0.419E-02    0.257E-01
DAV:  16    -0.629664727687E+03    0.32112E-04   -0.29959E-04 14256   0.269E-02    0.234E-01
DAV:  17    -0.629664701276E+03    0.26412E-04   -0.38446E-05 13152   0.100E-02    0.225E-01
DAV:  18    -0.629664662427E+03    0.38849E-04   -0.20585E-05 12912   0.559E-03    0.226E-01
DAV:  19    -0.629664675939E+03   -0.13512E-04   -0.33381E-06  9072   0.321E-03    0.225E-01
DAV:  20    -0.629664744297E+03   -0.68358E-04   -0.72047E-05 13152   0.944E-03    0.215E-01
DAV:  21    -0.629664897871E+03   -0.15357E-03   -0.41456E-04 13824   0.231E-02    0.212E-01
DAV:  22    -0.629665089715E+03   -0.19184E-03   -0.11747E-03 13824   0.395E-02    0.225E-01
DAV:  23    -0.629665174518E+03   -0.84803E-04   -0.17022E-04 13440   0.165E-02    0.234E-01
DAV:  24    -0.629665240060E+03   -0.65542E-04   -0.89260E-05 13632   0.100E-02    0.248E-01
DAV:  25    -0.629664733702E+03    0.50636E-03   -0.43732E-03 14400   0.754E-02    0.201E-01
DAV:  26    -0.629664496471E+03    0.23723E-03   -0.19061E-03 14112   0.586E-02    0.205E-01
DAV:  27    -0.629663408910E+03    0.10876E-02   -0.44940E-03 13680   0.834E-02    0.325E-01
DAV:  28    -0.629662465771E+03    0.94314E-03   -0.21130E-03 13728   0.623E-02    0.411E-01
DAV:  29    -0.629662649626E+03   -0.18386E-03   -0.17484E-04 10896   0.238E-02    0.405E-01
DAV:  30    -0.629662634622E+03    0.15004E-04   -0.16264E-05 16752   0.563E-03    0.407E-01
DAV:  31    -0.629662643626E+03   -0.90040E-05   -0.15713E-06  8832   0.245E-03    0.406E-01
DAV:  32    -0.629662649325E+03   -0.56986E-05   -0.62142E-07  6240   0.163E-03    0.406E-01
DAV:  33    -0.629662728003E+03   -0.78678E-04   -0.13976E-05 11280   0.558E-03    0.399E-01
DAV:  34    -0.629663681971E+03   -0.95397E-03   -0.19839E-03 14064   0.653E-02    0.298E-01
DAV:  35    -0.629664404825E+03   -0.72285E-03   -0.20828E-03 13920   0.632E-02    0.219E-01
DAV:  36    -0.629665003158E+03   -0.59833E-03   -0.31981E-03 13872   0.737E-02    0.165E-01
DAV:  37    -0.629665415638E+03   -0.41248E-03   -0.17899E-03 13968   0.501E-02    0.194E-01
DAV:  38    -0.629665769648E+03   -0.35401E-03   -0.10863E-03 14304   0.357E-02    0.279E-01
DAV:  39    -0.629665589039E+03    0.18061E-03   -0.36895E-04 13008   0.266E-02    0.230E-01
DAV:  40    -0.629665520630E+03    0.68409E-04   -0.66741E-05 13680   0.995E-03    0.215E-01
DAV:  41    -0.629665335393E+03    0.18524E-03   -0.33649E-04 14208   0.205E-02    0.189E-01
DAV:  42    -0.629664607228E+03    0.72816E-03   -0.48824E-03 13776   0.798E-02    0.206E-01
DAV:  43    -0.629664146149E+03    0.46108E-03   -0.25614E-03 13920   0.605E-02    0.263E-01
DAV:  44    -0.629663541640E+03    0.60451E-03   -0.15479E-03 14448   0.516E-02    0.337E-01
DAV:  45    -0.629662990206E+03    0.55143E-03   -0.95218E-04 14352   0.417E-02    0.397E-01
DAV:  46    -0.629663150145E+03   -0.15994E-03   -0.10372E-04 11424   0.185E-02    0.387E-01
DAV:  47    -0.629662974502E+03    0.17564E-03   -0.46021E-05 14544   0.108E-02    0.405E-01
DAV:  48    -0.629663094071E+03   -0.11957E-03   -0.19498E-05 12432   0.707E-03    0.393E-01
DAV:  49    -0.629663083834E+03    0.10237E-04   -0.48299E-06  9168   0.374E-03    0.394E-01
DAV:  50    -0.629663149406E+03   -0.65572E-04   -0.26631E-06  9408   0.294E-03    0.387E-01
DAV:  51    -0.629663110676E+03    0.38730E-04   -0.69523E-06  9744   0.408E-03    0.391E-01
DAV:  52    -0.629661905991E+03    0.12047E-02   -0.14908E-03 14016   0.571E-02    0.498E-01
DAV:  53    -0.629661955646E+03   -0.49654E-04   -0.13003E-04 11376   0.168E-02    0.497E-01
DAV:  54    -0.629662042838E+03   -0.87193E-04   -0.11472E-05 13152   0.544E-03    0.490E-01
DAV:  55    -0.629662299924E+03   -0.25709E-03   -0.55202E-05 13200   0.112E-02    0.467E-01
DAV:  56    -0.629662906444E+03   -0.60652E-03   -0.39905E-04 13968   0.287E-02    0.408E-01
DAV:  57    -0.629663526070E+03   -0.61963E-03   -0.52018E-04 14016   0.323E-02    0.345E-01
DAV:  58    -0.629663500062E+03    0.26008E-04   -0.61900E-05 11760   0.134E-02    0.350E-01
DAV:  59    -0.629663458433E+03    0.41629E-04   -0.12518E-05 12528   0.509E-03    0.353E-01
DAV:  60    -0.629663428770E+03    0.29662E-04   -0.47436E-06  9936   0.315E-03    0.356E-01
DAV:  61    -0.629663457987E+03   -0.29216E-04   -0.13030E-06  8640   0.233E-03    0.354E-01
DAV:  62    -0.629663510069E+03   -0.52083E-04   -0.47203E-06  9792   0.339E-03    0.348E-01
DAV:  63    -0.629663843440E+03   -0.33337E-03   -0.21969E-04 13872   0.220E-02    0.311E-01
DAV:  64    -0.629664022369E+03   -0.17893E-03   -0.11378E-04 13872   0.148E-02    0.293E-01
DAV:  65    -0.629664019248E+03    0.31208E-05   -0.84802E-06 10944   0.513E-03    0.294E-01
DAV:  66    -0.629664061481E+03   -0.42233E-04   -0.59782E-06 10128   0.352E-03    0.289E-01
DAV:  67    -0.629663759952E+03    0.30153E-03   -0.19957E-04 14208   0.201E-02    0.326E-01
DAV:  68    -0.629663830505E+03   -0.70553E-04   -0.14763E-05 11760   0.618E-03    0.317E-01
DAV:  69    -0.629663812360E+03    0.18145E-04   -0.15125E-06  8496   0.230E-03    0.319E-01
DAV:  70    -0.629663801029E+03    0.11331E-04   -0.68803E-07  7632   0.126E-03    0.320E-01
DAV:  71    -0.629663925566E+03   -0.12454E-03   -0.36881E-05 12624   0.884E-03    0.306E-01
DAV:  72    -0.629663831180E+03    0.94386E-04   -0.19913E-05 12096   0.659E-03    0.315E-01
DAV:  73    -0.629663984460E+03   -0.15328E-03   -0.60783E-05 13680   0.115E-02    0.297E-01
DAV:  74    -0.629663993166E+03   -0.87060E-05   -0.69089E-06 11472   0.380E-03    0.297E-01
DAV:  75    -0.629664001876E+03   -0.87096E-05   -0.10682E-06  8592   0.163E-03    0.296E-01
DAV:  76    -0.629664000722E+03    0.11536E-05   -0.21833E-07  6432   0.961E-04    0.296E-01
DAV:  77    -0.629664199365E+03   -0.19864E-03   -0.10013E-04 13872   0.146E-02    0.270E-01
DAV:  78    -0.629664135313E+03    0.64052E-04   -0.21666E-05 12864   0.712E-03    0.278E-01
DAV:  79    -0.629664190602E+03   -0.55290E-04   -0.69248E-06  9840   0.426E-03    0.270E-01
DAV:  80    -0.629664227721E+03   -0.37119E-04   -0.58843E-06 10992   0.352E-03    0.266E-01
DAV:  81    -0.629664237392E+03   -0.96711E-05   -0.88651E-07  8016   0.178E-03    0.264E-01
DAV:  82    -0.629665104776E+03   -0.86738E-03   -0.11130E-02 14208   0.145E-01    0.131E-01
DAV:  83    -0.629665597718E+03   -0.49294E-03   -0.18090E-03 12624   0.534E-02    0.182E-01
DAV:  84    -0.629665932855E+03   -0.33514E-03   -0.10247E-03 15888   0.342E-02    0.273E-01
DAV:  85    -0.629665149955E+03    0.78290E-03   -0.58393E-03 14544   0.867E-02    0.155E-01
DAV:  86    -0.629664580516E+03    0.56944E-03   -0.47477E-03 14160   0.799E-02    0.207E-01
DAV:  87    -0.629663691556E+03    0.88896E-03   -0.38839E-03 14064   0.794E-02    0.316E-01
DAV:  88    -0.629663545738E+03    0.14582E-03   -0.53321E-04 13680   0.338E-02    0.342E-01
DAV:  89    -0.629663023071E+03    0.52267E-03   -0.54458E-04 13872   0.322E-02    0.401E-01
DAV:  90    -0.629662743189E+03    0.27988E-03   -0.22838E-04 13728   0.206E-02
 -----------------------------------------------------------------------------
|                                                                             |
|           W    W    AA    RRRRR   N    N  II  N    N   GGGG   !!!           |
|           W    W   A  A   R    R  NN   N  II  NN   N  G    G  !!!           |
|           W    W  A    A  R    R  N N  N  II  N N  N  G       !!!           |
|           W WW W  AAAAAA  RRRRR   N  N N  II  N  N N  G  GGG   !            |
|           WW  WW  A    A  R   R   N   NN  II  N   NN  G    G                |
|           W    W  A    A  R    R  N    N  II  N    N   GGGG   !!!           |
|                                                                             |
|     The electronic self-consistency was not achieved in the given           |
|     number of steps (NELM). The forces and other quantities evaluated       |
|     might not be reliable so examine the results carefully. If you find     |
|     spurious results, we suggest increasing NELM, if you were close to      |
|     convergence or switching to a different ALGO or adjusting the           |
|     density mixing parameters otherwise.                                    |
|                                                                             |
 -----------------------------------------------------------------------------

  10 F= -.62966274E+03 E0= -.62962863E+03  d E =-.616891E-01  mag=    20.7989
 curvature:  -0.99 expect dE=-0.105E+00 dE for cont linesearch -0.300E-03
 trial: gam= 0.60073 g(F)=  0.106E+00 g(S)=  0.000E+00 ort =-0.109E-01 (trialstep = 0.443E+00)
 search vector abs. value=  0.234E+00
 bond charge predicted
       N       E                     dE             d eps       ncg     rms          rms(c)
DAV:   1    -0.629667370648E+03   -0.43476E-02   -0.11458E+01  9600   0.475E+00    0.186E+00
DAV:   2    -0.629721776582E+03   -0.54406E-01   -0.37184E-01 14448   0.124E+00    0.604E+00
DAV:   3    -0.629701060700E+03    0.20716E-01   -0.25449E-01 17520   0.840E-01    0.277E+00
DAV:   4    -0.629700937281E+03    0.12342E-03   -0.22188E-02 13776   0.307E-01    0.244E+00
DAV:   5    -0.629689104789E+03    0.11832E-01   -0.26127E-02 16608   0.365E-01    0.881E-01
DAV:   6    -0.629688383222E+03    0.72157E-03   -0.23461E-02 13824   0.226E-01    0.118E+00
DAV:   7    -0.629686806699E+03    0.15765E-02   -0.61971E-03 13344   0.103E-01    0.134E+00
DAV:   8    -0.629687197644E+03   -0.39094E-03   -0.11791E-03 14208   0.483E-02    0.110E+00
DAV:   9    -0.629690653157E+03   -0.34555E-02   -0.49306E-03 14064   0.105E-01    0.932E-01
DAV:  10    -0.629693370914E+03   -0.27178E-02   -0.64768E-03 14976   0.106E-01    0.889E-01
DAV:  11    -0.629695722961E+03   -0.23520E-02   -0.44056E-03 13968   0.879E-02    0.702E-01
DAV:  12    -0.629696381452E+03   -0.65849E-03   -0.34583E-03 13248   0.673E-02    0.570E-01
DAV:  13    -0.629697051011E+03   -0.66956E-03   -0.91271E-04 13536   0.421E-02    0.709E-01
DAV:  14    -0.629697161438E+03   -0.11043E-03   -0.36467E-04 13968   0.251E-02    0.739E-01
DAV:  15    -0.629696933956E+03    0.22748E-03   -0.32758E-04 14400   0.275E-02    0.639E-01
DAV:  16    -0.629696507373E+03    0.42658E-03   -0.21707E-03 14496   0.643E-02    0.477E-01
DAV:  17    -0.629696266328E+03    0.24104E-03   -0.10301E-03 13920   0.409E-02    0.504E-01
DAV:  18    -0.629695756979E+03    0.50935E-03   -0.50638E-04 14160   0.288E-02    0.518E-01
DAV:  19    -0.629695610822E+03    0.14616E-03   -0.83160E-05 12912   0.130E-02    0.525E-01
DAV:  20    -0.629695764165E+03   -0.15334E-03   -0.67494E-05 13728   0.110E-02    0.510E-01
DAV:  21    -0.629696220323E+03   -0.45616E-03   -0.42888E-04 14016   0.281E-02    0.464E-01
DAV:  22    -0.629696879124E+03   -0.65880E-03   -0.15296E-03 13872   0.473E-02    0.403E-01
DAV:  23    -0.629697642848E+03   -0.76372E-03   -0.35752E-03 13872   0.665E-02    0.402E-01
DAV:  24    -0.629698346871E+03   -0.70402E-03   -0.24738E-03 13872   0.517E-02    0.543E-01
DAV:  25    -0.629698252254E+03    0.94617E-04   -0.17088E-04 11136   0.211E-02    0.507E-01
DAV:  26    -0.629698185915E+03    0.66339E-04   -0.39562E-05 14208   0.746E-03    0.483E-01
DAV:  27    -0.629698223960E+03   -0.38045E-04   -0.56431E-05 13872   0.105E-02    0.483E-01
DAV:  28    -0.629697451909E+03    0.77205E-03   -0.27403E-03 13968   0.580E-02    0.344E-01
DAV:  29    -0.629696985285E+03    0.46662E-03   -0.21483E-03 14256   0.557E-02    0.331E-01
DAV:  30    -0.629696084428E+03    0.90086E-03   -0.35396E-03 13872   0.710E-02    0.404E-01
DAV:  31    -0.629695263496E+03    0.82093E-03   -0.18853E-03 14016   0.560E-02    0.481E-01
DAV:  32    -0.629694787496E+03    0.47600E-03   -0.46526E-04 14592   0.294E-02    0.528E-01
DAV:  33    -0.629695072380E+03   -0.28488E-03   -0.10640E-04 12576   0.181E-02    0.510E-01
DAV:  34    -0.629695193120E+03   -0.12074E-03   -0.33871E-05 13632   0.773E-03    0.498E-01
DAV:  35    -0.629695182674E+03    0.10446E-04   -0.26680E-06  8976   0.317E-03    0.498E-01
DAV:  36    -0.629695106629E+03    0.76044E-04   -0.78673E-06 10224   0.387E-03    0.504E-01
DAV:  37    -0.629695085251E+03    0.21378E-04   -0.15643E-06  9456   0.189E-03    0.504E-01
DAV:  38    -0.629695045463E+03    0.39788E-04   -0.24947E-06  8496   0.245E-03    0.506E-01
DAV:  39    -0.629695126291E+03   -0.80827E-04   -0.80064E-06  9600   0.475E-03    0.495E-01
DAV:  40    -0.629695452815E+03   -0.32652E-03   -0.13145E-04 13920   0.171E-02    0.458E-01
DAV:  41    -0.629696002661E+03   -0.54985E-03   -0.52383E-04 14208   0.319E-02    0.396E-01
DAV:  42    -0.629696486890E+03   -0.48423E-03   -0.64123E-04 13968   0.330E-02    0.350E-01
DAV:  43    -0.629697087077E+03   -0.60019E-03   -0.15950E-03 13728   0.497E-02    0.302E-01
DAV:  44    -0.629697582800E+03   -0.49572E-03   -0.15425E-03 13872   0.460E-02    0.302E-01
DAV:  45    -0.629697895623E+03   -0.31282E-03   -0.53822E-04 14448   0.269E-02    0.325E-01
DAV:  46    -0.629698046286E+03   -0.15066E-03   -0.12176E-04 13296   0.129E-02    0.347E-01
DAV:  47    -0.629698028178E+03    0.18108E-04   -0.97104E-06 11088   0.556E-03    0.345E-01
DAV:  48    -0.629697920841E+03    0.10734E-03   -0.51822E-05 12384   0.807E-03    0.329E-01
DAV:  49    -0.629697617785E+03    0.30306E-03   -0.46820E-04 13968   0.243E-02    0.301E-01
DAV:  50    -0.629697150335E+03    0.46745E-03   -0.12285E-03 13776   0.401E-02    0.303E-01
DAV:  51    -0.629696441298E+03    0.70904E-03   -0.23008E-03 13872   0.553E-02    0.355E-01
DAV:  52    -0.629695819206E+03    0.62209E-03   -0.14012E-03 14064   0.463E-02    0.414E-01
DAV:  53    -0.629695998467E+03   -0.17926E-03   -0.12751E-04 11280   0.196E-02    0.404E-01
DAV:  54    -0.629696013013E+03   -0.14546E-04   -0.10311E-05 14256   0.468E-03    0.403E-01
DAV:  55    -0.629696019893E+03   -0.68801E-05   -0.98495E-07  8208   0.168E-03    0.402E-01
DAV:  56    -0.629695968194E+03    0.51699E-04   -0.64656E-06  9888   0.352E-03    0.407E-01
DAV:  57    -0.629696196987E+03   -0.22879E-03   -0.11496E-04 14304   0.148E-02    0.384E-01
DAV:  58    -0.629696617957E+03   -0.42097E-03   -0.58209E-04 14016   0.317E-02    0.347E-01
DAV:  59    -0.629697087128E+03   -0.46917E-03   -0.11295E-03 14016   0.400E-02    0.310E-01
DAV:  60    -0.629697563344E+03   -0.47622E-03   -0.14203E-03 13680   0.434E-02    0.304E-01
DAV:  61    -0.629698187559E+03   -0.62422E-03   -0.21167E-03 13872   0.516E-02    0.388E-01
DAV:  62    -0.629698675784E+03   -0.48822E-03   -0.95430E-04 13872   0.321E-02    0.503E-01
DAV:  63    -0.629698696271E+03   -0.20486E-04   -0.37051E-05 11952   0.102E-02    0.513E-01
DAV:  64    -0.629698891328E+03   -0.19506E-03   -0.95676E-05 13728   0.104E-02    0.571E-01
DAV:  65    -0.629699047304E+03   -0.15598E-03   -0.65045E-05 13632   0.894E-03    0.624E-01
DAV:  66    -0.629699078499E+03   -0.31195E-04   -0.10606E-05 11808   0.414E-03    0.642E-01
DAV:  67    -0.629703473649E+03   -0.43952E-02   -0.10938E-02 14112   0.100E-01    0.194E+00
DAV:  68    -0.629700901202E+03    0.25724E-02   -0.19036E-03 12432   0.473E-02    0.143E+00
DAV:  69    -0.629698460244E+03    0.24410E-02   -0.47085E-03 13824   0.650E-02    0.688E-01
DAV:  70    -0.629699722715E+03   -0.12625E-02   -0.54452E-04 12144   0.326E-02    0.878E-01
DAV:  71    -0.629699761882E+03   -0.39168E-04   -0.19297E-05 12384   0.667E-03    0.898E-01
DAV:  72    -0.629699871328E+03   -0.10945E-03   -0.11925E-05 11424   0.432E-03    0.931E-01
DAV:  73    -0.629700299495E+03   -0.42817E-03   -0.13708E-04 13104   0.123E-02    0.107E+00
DAV:  74    -0.629700493372E+03   -0.19388E-03   -0.51858E-05 13824   0.853E-03    0.115E+00
DAV:  75    -0.629700254022E+03    0.23935E-03   -0.16048E-05 10800   0.572E-03    0.111E+00
DAV:  76    -0.629700196422E+03    0.57600E-04   -0.38724E-06  9552   0.259E-03    0.108E+00
DAV:  77    -0.629702967584E+03   -0.27712E-02   -0.30042E-03 14304   0.510E-02    0.184E+00
DAV:  78    -0.629700576338E+03    0.23912E-02   -0.15439E-03 13536   0.363E-02    0.135E+00
DAV:  79    -0.629702635690E+03   -0.20594E-02   -0.12135E-03 14208   0.306E-02    0.182E+00
DAV:  80    -0.629700652837E+03    0.19829E-02   -0.11216E-03 14304   0.286E-02    0.139E+00
DAV:  81    -0.629701630999E+03   -0.97816E-03   -0.17135E-04 12384   0.135E-02    0.157E+00
DAV:  82    -0.629699856413E+03    0.17746E-02   -0.14284E-03 14736   0.322E-02    0.111E+00
DAV:  83    -0.629700936430E+03   -0.10800E-02   -0.24678E-04 13584   0.189E-02    0.132E+00
DAV:  84    -0.629701185077E+03   -0.24865E-03   -0.56032E-05 12864   0.781E-03    0.142E+00
DAV:  85    -0.629701020843E+03    0.16423E-03   -0.52213E-06  9264   0.388E-03    0.139E+00
DAV:  86    -0.629701293691E+03   -0.27285E-03   -0.28622E-05  9984   0.527E-03    0.147E+00
DAV:  87    -0.629699278174E+03    0.20155E-02   -0.21455E-03 14112   0.415E-02    0.920E-01
DAV:  88    -0.629701019995E+03   -0.17418E-02   -0.90031E-04 14496   0.348E-02    0.131E+00
DAV:  89    -0.629699051389E+03    0.19686E-02   -0.18270E-03 14400   0.438E-02    0.797E-01
DAV:  90    -0.629700404724E+03   -0.13533E-02   -0.70148E-04 14304   0.308E-02
 -----------------------------------------------------------------------------
|                                                                             |
|           W    W    AA    RRRRR   N    N  II  N    N   GGGG   !!!           |
|           W    W   A  A   R    R  NN   N  II  NN   N  G    G  !!!           |
|           W    W  A    A  R    R  N N  N  II  N N  N  G       !!!           |
|           W WW W  AAAAAA  RRRRR   N  N N  II  N  N N  G  GGG   !            |
|           WW  WW  A    A  R   R   N   NN  II  N   NN  G    G                |
|           W    W  A    A  R    R  N    N  II  N    N   GGGG   !!!           |
|                                                                             |
|     The electronic self-consistency was not achieved in the given           |
|     number of steps (NELM). The forces and other quantities evaluated       |
|     might not be reliable so examine the results carefully. If you find     |
|     spurious results, we suggest increasing NELM, if you were close to      |
|     convergence or switching to a different ALGO or adjusting the           |
|     density mixing parameters otherwise.                                    |
|                                                                             |
 -----------------------------------------------------------------------------

  11 F= -.62970040E+03 E0= -.62966336E+03  d E =-.376615E-01  mag=    20.5981
 trial-energy change:   -0.037662  1 .order   -0.028975   -0.044201   -0.013748
 step:   0.5101(harm=  0.6427)  dis= 0.01310  next Energy=  -629.701480 (dE=-0.387E-01)
 bond charge predicted
       N       E                     dE             d eps       ncg     rms          rms(c)
DAV:   1    -0.629700352082E+03   -0.13007E-02   -0.26619E-01  9600   0.723E-01    0.629E-01
DAV:   2    -0.629707807801E+03   -0.74557E-02   -0.19298E-02 15216   0.296E-01    0.183E+00
DAV:   3    -0.629704426166E+03    0.33816E-02   -0.46228E-03 13152   0.132E-01    0.140E+00
[...]
DAV:  84    -0.629727823889E+03    0.24767E-03   -0.34671E-04 13488   0.201E-02    0.342E-01
DAV:  85    -0.629727766318E+03    0.57571E-04   -0.59638E-05 13056   0.976E-03    0.348E-01
DAV:  86    -0.629727686793E+03    0.79525E-04   -0.34629E-05 12144   0.637E-03    0.357E-01
DAV:  87    -0.629728586880E+03   -0.90009E-03   -0.68750E-03 14064   0.930E-02    0.330E-01
DAV:  88    -0.629728852640E+03   -0.26576E-03   -0.43437E-04 11904   0.277E-02    0.349E-01
DAV:  89    -0.629728821979E+03    0.30661E-04   -0.31465E-05 13680   0.932E-03    0.341E-01
DAV:  90    -0.629728762609E+03    0.59370E-04   -0.20447E-05 11328   0.524E-03
 -----------------------------------------------------------------------------
|                                                                             |
|           W    W    AA    RRRRR   N    N  II  N    N   GGGG   !!!           |
|           W    W   A  A   R    R  NN   N  II  NN   N  G    G  !!!           |
|           W    W  A    A  R    R  N N  N  II  N N  N  G       !!!           |
|           W WW W  AAAAAA  RRRRR   N  N N  II  N  N N  G  GGG   !            |
|           WW  WW  A    A  R   R   N   NN  II  N   NN  G    G                |
|           W    W  A    A  R    R  N    N  II  N    N   GGGG   !!!           |
|                                                                             |
|     The electronic self-consistency was not achieved in the given           |
|     number of steps (NELM). The forces and other quantities evaluated       |
|     might not be reliable so examine the results carefully. If you find     |
|     spurious results, we suggest increasing NELM, if you were close to      |
|     convergence or switching to a different ALGO or adjusting the           |
|     density mixing parameters otherwise.                                    |
|                                                                             |
 -----------------------------------------------------------------------------

  16 F= -.62972876E+03 E0= -.62969358E+03  d E =-.266964E-01  mag=    20.6609
 curvature:   3.60 expect dE= 0.490E+00 dE for cont linesearch  0.303E-01
 ZBRENT: bracketing found
 ZBRENT: interpolating
 opt :   1.1814  next Energy=  -629.735668 (dE=-0.336E-01)
 bond charge predicted
       N       E                     dE             d eps       ncg     rms          rms(c)
DAV:   1    -0.629717893737E+03    0.10928E-01   -0.84257E+00  9600   0.410E+00    0.843E-01
DAV:   2    -0.629739502749E+03   -0.21609E-01   -0.22046E-01 13392   0.871E-01    0.168E+00
DAV:   3    -0.629738502585E+03    0.10002E-02   -0.20088E-02 15552   0.285E-01    0.958E-01
DAV:   4    -0.629739542832E+03   -0.10402E-02   -0.94616E-03 16176   0.159E-01    0.142E+00
DAV:   5    -0.629738047566E+03    0.14953E-02   -0.65432E-03 15120   0.105E-01    0.129E+00
DAV:   6    -0.629737387171E+03    0.66039E-03   -0.70894E-03 14640   0.980E-02    0.935E-01
DAV:   7    -0.629737130063E+03    0.25711E-03   -0.75958E-03 14256   0.117E-01    0.844E-01
DAV:   8    -0.629736641934E+03    0.48813E-03   -0.11103E-02 14208   0.131E-01    0.822E-01
DAV:   9    -0.629735300545E+03    0.13414E-02   -0.72185E-03 14688   0.130E-01    0.794E-01
DAV:  10    -0.629734510107E+03    0.79044E-03   -0.44823E-03 14880   0.124E-01    0.701E-01
DAV:  11    -0.629732855240E+03    0.16549E-02   -0.30192E-03 14256   0.783E-02    0.761E-01
DAV:  12    -0.629730551090E+03    0.23042E-02   -0.25719E-03 13536   0.632E-02    0.894E-01
DAV:  13    -0.629732744770E+03   -0.21937E-02   -0.19494E-03 13680   0.665E-02    0.766E-01
DAV:  14    -0.629736279571E+03   -0.35348E-02   -0.13791E-02 13920   0.155E-01    0.643E-01
DAV:  15    -0.629737853010E+03   -0.15734E-02   -0.14586E-02 13584   0.115E-01    0.950E-01
DAV:  16    -0.629740666601E+03   -0.28136E-02   -0.62932E-03 14304   0.822E-02    0.191E+00
DAV:  17    -0.629737416281E+03    0.32503E-02   -0.51327E-03 13920   0.812E-02    0.102E+00
DAV:  18    -0.629736609875E+03    0.80641E-03   -0.44292E-03 14592   0.753E-02    0.551E-01
DAV:  19    -0.629736274789E+03    0.33509E-03   -0.60508E-03 13872   0.817E-02    0.389E-01
DAV:  20    -0.629735958598E+03    0.31619E-03   -0.25305E-03 14064   0.573E-02    0.396E-01
DAV:  21    -0.629735330899E+03    0.62770E-03   -0.18216E-03 13776   0.496E-02    0.450E-01
DAV:  22    -0.629734372337E+03    0.95856E-03   -0.19333E-03 13872   0.566E-02    0.518E-01
DAV:  23    -0.629733932630E+03    0.43971E-03   -0.52520E-04 13872   0.305E-02    0.560E-01
DAV:  24    -0.629733861886E+03    0.70744E-04   -0.40908E-05 13296   0.102E-02    0.570E-01
DAV:  25    -0.629733865070E+03   -0.31835E-05   -0.52108E-06 14016   0.329E-03    0.571E-01
DAV:  26    -0.629733803140E+03    0.61930E-04   -0.29246E-06 10224   0.290E-03    0.577E-01
DAV:  27    -0.629733962990E+03   -0.15985E-03   -0.18272E-05 11088   0.632E-03    0.562E-01
DAV:  28    -0.629734226346E+03   -0.26336E-03   -0.67285E-05 13344   0.115E-02    0.538E-01
DAV:  29    -0.629735371916E+03   -0.11456E-02   -0.21006E-03 13872   0.613E-02    0.411E-01
DAV:  30    -0.629736367711E+03   -0.99580E-03   -0.45607E-03 13920   0.827E-02    0.322E-01
DAV:  31    -0.629737117231E+03   -0.74952E-03   -0.31682E-03 14160   0.641E-02    0.393E-01
DAV:  32    -0.629738068377E+03   -0.95115E-03   -0.32623E-03 14064   0.538E-02    0.666E-01
DAV:  33    -0.629738123813E+03   -0.55436E-04   -0.19456E-04 11040   0.229E-02    0.688E-01
DAV:  34    -0.629737986666E+03    0.13715E-03   -0.37350E-05 15168   0.743E-03    0.650E-01
DAV:  35    -0.629737943035E+03    0.43632E-04   -0.80855E-06 10512   0.370E-03    0.632E-01
DAV:  36    -0.629737860376E+03    0.82659E-04   -0.22861E-05 11328   0.558E-03    0.596E-01
DAV:  37    -0.629737714057E+03    0.14632E-03   -0.80762E-05 13824   0.987E-03    0.535E-01
DAV:  38    -0.629737707179E+03    0.68776E-05   -0.26609E-05 13152   0.635E-03    0.513E-01
DAV:  39    -0.629737568287E+03    0.13889E-03   -0.54279E-05 12144   0.721E-03    0.475E-01
DAV:  40    -0.629737319612E+03    0.24868E-03   -0.22410E-04 13344   0.144E-02    0.414E-01
DAV:  41    -0.629737247468E+03    0.72143E-04   -0.75091E-05 13872   0.952E-03    0.394E-01
DAV:  42    -0.629736602049E+03    0.64542E-03   -0.18686E-03 14016   0.471E-02    0.323E-01
DAV:  43    -0.629736360695E+03    0.24135E-03   -0.64847E-04 14112   0.301E-02    0.329E-01
DAV:  44    -0.629736046241E+03    0.31445E-03   -0.61565E-04 13680   0.263E-02    0.359E-01
DAV:  45    -0.629735798758E+03    0.24748E-03   -0.35184E-04 13776   0.212E-02    0.382E-01
DAV:  46    -0.629735607866E+03    0.19089E-03   -0.16542E-04 14208   0.143E-02    0.404E-01
DAV:  47    -0.629735359589E+03    0.24828E-03   -0.19278E-04 13344   0.160E-02    0.429E-01
DAV:  48    -0.629735300263E+03    0.59325E-04   -0.27824E-05 12864   0.727E-03    0.435E-01
DAV:  49    -0.629735402598E+03   -0.10234E-03   -0.25613E-05 12384   0.729E-03    0.424E-01
DAV:  50    -0.629735622735E+03   -0.22014E-03   -0.13948E-04 13392   0.150E-02    0.401E-01
DAV:  51    -0.629735918905E+03   -0.29617E-03   -0.35665E-04 13632   0.220E-02    0.373E-01
DAV:  52    -0.629736208941E+03   -0.29004E-03   -0.40980E-04 13920   0.231E-02    0.353E-01
DAV:  53    -0.629736800471E+03   -0.59153E-03   -0.21903E-03 13584   0.516E-02    0.343E-01
DAV:  54    -0.629737050498E+03   -0.25003E-03   -0.37559E-04 13584   0.239E-02    0.370E-01
DAV:  55    -0.629737547797E+03   -0.49730E-03   -0.11248E-03 14112   0.343E-02    0.468E-01
DAV:  56    -0.629737675360E+03   -0.12756E-03   -0.13857E-04 13200   0.147E-02    0.504E-01
DAV:  57    -0.629736678737E+03    0.99662E-03   -0.35313E-03 13872   0.626E-02    0.350E-01
DAV:  58    -0.629736949108E+03   -0.27037E-03   -0.19222E-04 11808   0.197E-02    0.351E-01
DAV:  59    -0.629736798966E+03    0.15014E-03   -0.12733E-04 15360   0.139E-02    0.335E-01
DAV:  60    -0.629736132887E+03    0.66608E-03   -0.19968E-03 13632   0.498E-02    0.344E-01
DAV:  61    -0.629735767910E+03    0.36498E-03   -0.92470E-04 13920   0.348E-02    0.372E-01
DAV:  62    -0.629735601236E+03    0.16667E-03   -0.19639E-04 14400   0.166E-02    0.388E-01
DAV:  63    -0.629735383872E+03    0.21736E-03   -0.16236E-04 13152   0.142E-02    0.411E-01
DAV:  64    -0.629735406208E+03   -0.22336E-04   -0.11593E-05 10368   0.608E-03    0.409E-01
DAV:  65    -0.629735284618E+03    0.12159E-03   -0.38008E-05 13056   0.788E-03    0.421E-01
DAV:  66    -0.629735530566E+03   -0.24595E-03   -0.15601E-04 14064   0.161E-02    0.396E-01
DAV:  67    -0.629735195478E+03    0.33509E-03   -0.29016E-04 14352   0.203E-02    0.443E-01
DAV:  68    -0.629735495928E+03   -0.30045E-03   -0.19950E-04 13968   0.188E-02    0.411E-01
DAV:  69    -0.629735695559E+03   -0.19963E-03   -0.14396E-04 13632   0.146E-02    0.391E-01
DAV:  70    -0.629736139181E+03   -0.44362E-03   -0.89456E-04 13536   0.340E-02    0.349E-01
DAV:  71    -0.629736840541E+03   -0.70136E-03   -0.32064E-03 13680   0.637E-02    0.348E-01
DAV:  72    -0.629737080087E+03   -0.23955E-03   -0.35998E-04 12816   0.251E-02    0.373E-01
DAV:  73    -0.629737070197E+03    0.98897E-05   -0.18536E-05 12624   0.744E-03    0.370E-01
DAV:  74    -0.629737063870E+03    0.63273E-05   -0.14415E-06  9792   0.189E-03    0.369E-01
DAV:  75    -0.629737064900E+03   -0.10300E-05   -0.18496E-07  6240   0.913E-04    0.369E-01
DAV:  76    -0.629737018667E+03    0.46232E-04   -0.96225E-06 10128   0.363E-03    0.364E-01
DAV:  77    -0.629743761862E+03   -0.67432E-02   -0.48760E-02 14160   0.192E-01    0.239E+00
DAV:  78    -0.629744569381E+03   -0.80752E-03   -0.24127E-03 11328   0.687E-02    0.274E+00
DAV:  79    -0.629738955508E+03    0.56139E-02   -0.11792E-02 13824   0.733E-02    0.148E+00
DAV:  80    -0.629754106531E+03   -0.15151E-01   -0.64941E-02 14592   0.144E-01    0.455E+00
DAV:  81    -0.629729740732E+03    0.24366E-01   -0.53923E-01 14304   0.403E-01    0.423E-01
DAV:  82    -0.629733145347E+03   -0.34046E-02   -0.13139E-02 13008   0.153E-01    0.527E-01
DAV:  83    -0.629732782678E+03    0.36267E-03   -0.21928E-03 15072   0.638E-02    0.617E-01
DAV:  84    -0.629733515009E+03   -0.73233E-03   -0.43714E-04 12432   0.371E-02    0.571E-01
DAV:  85    -0.629734660705E+03   -0.11457E-02   -0.19881E-03 13536   0.617E-02    0.458E-01
DAV:  86    -0.629736290675E+03   -0.16300E-02   -0.11348E-02 13584   0.136E-01    0.317E-01
DAV:  87    -0.629737487872E+03   -0.11972E-02   -0.52941E-03 14352   0.831E-02    0.476E-01
DAV:  88    -0.629737873335E+03   -0.38546E-03   -0.43793E-04 12816   0.276E-02    0.549E-01
DAV:  89    -0.629738806780E+03   -0.93344E-03   -0.17014E-03 14064   0.387E-02    0.847E-01
DAV:  90    -0.629740236322E+03   -0.14295E-02   -0.15822E-03 13728   0.427E-02
 -----------------------------------------------------------------------------
|                                                                             |
|           W    W    AA    RRRRR   N    N  II  N    N   GGGG   !!!           |
|           W    W   A  A   R    R  NN   N  II  NN   N  G    G  !!!           |
|           W    W  A    A  R    R  N N  N  II  N N  N  G       !!!           |
|           W WW W  AAAAAA  RRRRR   N  N N  II  N  N N  G  GGG   !            |
|           WW  WW  A    A  R   R   N   NN  II  N   NN  G    G                |
|           W    W  A    A  R    R  N    N  II  N    N   GGGG   !!!           |
|                                                                             |
|     The electronic self-consistency was not achieved in the given           |
|     number of steps (NELM). The forces and other quantities evaluated       |
|     might not be reliable so examine the results carefully. If you find     |
|     spurious results, we suggest increasing NELM, if you were close to      |
|     convergence or switching to a different ALGO or adjusting the           |
|     density mixing parameters otherwise.                                    |
|                                                                             |
 -----------------------------------------------------------------------------

  17 F= -.62974024E+03 E0= -.62970279E+03  d E =-.381701E-01  mag=    20.5589
 curvature:  -0.21 expect dE=-0.112E-01 dE for cont linesearch -0.358E-05
 trial: gam= 1.01726 g(F)=  0.529E-01 g(S)=  0.000E+00 ort =-0.129E-02 (trialstep = 0.401E+00)
 search vector abs. value=  0.151E+00
 bond charge predicted
       N       E                     dE             d eps       ncg     rms          rms(c)
DAV:   1    -0.629744236475E+03   -0.54297E-02   -0.60972E+00  9600   0.349E+00    0.195E+00
DAV:   2    -0.629816347834E+03   -0.72111E-01   -0.60583E-01 16176   0.144E+00    0.354E+00
DAV:   3    -0.629763902611E+03    0.52445E-01   -0.11157E-01 16320   0.897E-01    0.168E+00
DAV:   4    -0.629758761742E+03    0.51409E-02   -0.32181E-02 14544   0.305E-01    0.162E+00
DAV:   5    -0.629757110999E+03    0.16507E-02   -0.29617E-02 14592   0.228E-01    0.119E+00
DAV:   6    -0.629753648298E+03    0.34627E-02   -0.22415E-02 15312   0.226E-01    0.946E-01
DAV:   7    -0.629751769617E+03    0.18787E-02   -0.12035E-02 14304   0.154E-01    0.963E-01
DAV:   8    -0.629748351026E+03    0.34186E-02   -0.38770E-03 14256   0.877E-02    0.726E-01
DAV:   9    -0.629747295339E+03    0.10557E-02   -0.67499E-03 13920   0.925E-02    0.962E-01
DAV:  10    -0.629747793461E+03   -0.49812E-03   -0.30380E-03 15504   0.917E-02    0.725E-01
DAV:  11    -0.629746977527E+03    0.81593E-03   -0.55405E-03 14832   0.113E-01    0.804E-01
DAV:  12    -0.629740571250E+03    0.64063E-02   -0.12863E-02 13920   0.135E-01    0.956E-01
DAV:  13    -0.629734231397E+03    0.63399E-02   -0.89816E-03 13296   0.106E-01    0.152E+00
DAV:  14    -0.629732360114E+03    0.18713E-02   -0.10125E-03 13392   0.562E-02    0.153E+00
DAV:  15    -0.629727251181E+03    0.51089E-02   -0.27148E-03 14016   0.661E-02    0.178E+00
DAV:  16    -0.629730587777E+03   -0.33366E-02   -0.11550E-03 14592   0.681E-02    0.179E+00
DAV:  17    -0.629743391099E+03   -0.12803E-01   -0.24534E-02 13536   0.186E-01    0.918E-01
DAV:  18    -0.629751272539E+03   -0.78814E-02   -0.32649E-02 13968   0.232E-01    0.699E-01
DAV:  19    -0.629756289204E+03   -0.50167E-02   -0.16314E-02 14256   0.140E-01    0.165E+00
DAV:  20    -0.629757529761E+03   -0.12406E-02   -0.17546E-03 12240   0.545E-02    0.204E+00
DAV:  21    -0.629754706373E+03    0.28234E-02   -0.28701E-03 14256   0.470E-02    0.142E+00
DAV:  22    -0.629752458434E+03    0.22479E-02   -0.66840E-03 14160   0.806E-02    0.675E-01
DAV:  23    -0.629752583995E+03   -0.12556E-03   -0.25414E-03 13776   0.571E-02    0.664E-01
DAV:  24    -0.629752392236E+03    0.19176E-03   -0.61756E-04 14928   0.424E-02    0.483E-01
DAV:  25    -0.629751310522E+03    0.10817E-02   -0.43955E-03 13968   0.825E-02    0.453E-01
DAV:  26    -0.629750641622E+03    0.66890E-03   -0.18709E-03 14304   0.649E-02    0.464E-01
DAV:  27    -0.629749956549E+03    0.68507E-03   -0.91657E-04 14256   0.386E-02    0.527E-01
DAV:  28    -0.629749598406E+03    0.35814E-03   -0.27126E-04 13392   0.215E-02    0.562E-01
DAV:  29    -0.629749479439E+03    0.11897E-03   -0.43758E-05 13872   0.924E-03    0.575E-01
DAV:  30    -0.629749558369E+03   -0.78930E-04   -0.84439E-06 11376   0.513E-03    0.570E-01
DAV:  31    -0.629749554381E+03    0.39888E-05   -0.78726E-07  7968   0.182E-03    0.570E-01
DAV:  32    -0.629749562569E+03   -0.81882E-05   -0.23922E-07  6240   0.114E-03    0.570E-01
DAV:  33    -0.629749585178E+03   -0.22609E-04   -0.65388E-07  6816   0.133E-03    0.568E-01
DAV:  34    -0.629749647123E+03   -0.61946E-04   -0.40769E-06  9792   0.320E-03    0.561E-01
DAV:  35    -0.629750002090E+03   -0.35497E-03   -0.99280E-05 13872   0.157E-02    0.534E-01
DAV:  36    -0.629750420082E+03   -0.41799E-03   -0.16802E-04 14064   0.181E-02    0.498E-01
DAV:  37    -0.629750894539E+03   -0.47446E-03   -0.22249E-04 13776   0.184E-02    0.457E-01
DAV:  38    -0.629751566117E+03   -0.67158E-03   -0.43250E-04 14400   0.328E-02    0.416E-01
DAV:  39    -0.629751818303E+03   -0.25219E-03   -0.14419E-04 13488   0.174E-02    0.417E-01
DAV:  40    -0.629751852503E+03   -0.34200E-04   -0.13198E-05 13344   0.588E-03    0.406E-01
DAV:  41    -0.629752442984E+03   -0.59048E-03   -0.12225E-03 13824   0.396E-02    0.355E-01
DAV:  42    -0.629753406494E+03   -0.96351E-03   -0.45624E-03 13872   0.774E-02    0.396E-01
DAV:  43    -0.629753570329E+03   -0.16383E-03   -0.29742E-04 11184   0.251E-02    0.410E-01
DAV:  44    -0.629754206841E+03   -0.63651E-03   -0.15702E-03 14928   0.380E-02    0.546E-01
DAV:  45    -0.629754072261E+03    0.13458E-03   -0.77243E-05 12000   0.130E-02    0.521E-01
DAV:  46    -0.629754052970E+03    0.19290E-04   -0.57019E-06 12384   0.355E-03    0.519E-01
DAV:  47    -0.629751854208E+03    0.21988E-02   -0.12174E-02 14064   0.119E-01    0.366E-01
DAV:  48    -0.629753293807E+03   -0.14396E-02   -0.58214E-03 14400   0.871E-02    0.380E-01
DAV:  49    -0.629753381246E+03   -0.87439E-04   -0.14273E-04 12480   0.168E-02    0.388E-01
DAV:  50    -0.629752652861E+03    0.72839E-03   -0.16310E-03 14016   0.448E-02    0.346E-01
DAV:  51    -0.629751998192E+03    0.65467E-03   -0.18493E-03 13776   0.485E-02    0.378E-01
DAV:  52    -0.629751846051E+03    0.15214E-03   -0.48824E-04 14064   0.261E-02    0.397E-01
DAV:  53    -0.629751591956E+03    0.25409E-03   -0.33467E-04 13632   0.205E-02    0.426E-01
DAV:  54    -0.629751029051E+03    0.56291E-03   -0.84607E-04 13680   0.348E-02    0.481E-01
DAV:  55    -0.629750692734E+03    0.33632E-03   -0.33501E-04 13872   0.232E-02    0.515E-01
DAV:  56    -0.629750691055E+03    0.16795E-05   -0.23854E-05 10992   0.843E-03    0.517E-01
DAV:  57    -0.629750437619E+03    0.25344E-03   -0.91886E-05 13776   0.126E-02    0.539E-01
DAV:  58    -0.629749978485E+03    0.45913E-03   -0.33759E-04 13632   0.237E-02    0.584E-01
DAV:  59    -0.629750142757E+03   -0.16427E-03   -0.44644E-05 12192   0.109E-02    0.568E-01
DAV:  60    -0.629750422520E+03   -0.27976E-03   -0.92511E-05 13152   0.131E-02    0.542E-01
DAV:  61    -0.629750679542E+03   -0.25702E-03   -0.95428E-05 13536   0.131E-02    0.520E-01
DAV:  62    -0.629751613698E+03   -0.93416E-03   -0.19936E-03 13872   0.569E-02    0.418E-01
DAV:  63    -0.629751945179E+03   -0.33148E-03   -0.35232E-04 13440   0.247E-02    0.401E-01
DAV:  64    -0.629752244273E+03   -0.29909E-03   -0.35812E-04 14016   0.208E-02    0.374E-01
DAV:  65    -0.629752357176E+03   -0.11290E-03   -0.76944E-05 13008   0.108E-02    0.368E-01
DAV:  66    -0.629752315595E+03    0.41581E-04   -0.12062E-05 11088   0.542E-03    0.370E-01
DAV:  67    -0.629752506824E+03   -0.19123E-03   -0.17293E-04 14112   0.151E-02    0.356E-01
DAV:  68    -0.629752319845E+03    0.18698E-03   -0.14920E-04 14112   0.141E-02    0.371E-01
DAV:  69    -0.629752249402E+03    0.70443E-04   -0.49032E-05 13152   0.795E-03    0.379E-01
DAV:  70    -0.629752114365E+03    0.13504E-03   -0.87269E-05 13056   0.103E-02    0.394E-01
DAV:  71    -0.629752111534E+03    0.28305E-05   -0.59423E-06 10800   0.397E-03    0.394E-01
DAV:  72    -0.629751857721E+03    0.25381E-03   -0.19480E-04 14256   0.160E-02    0.418E-01
DAV:  73    -0.629752033020E+03   -0.17530E-03   -0.82124E-05 14064   0.115E-02    0.401E-01
DAV:  74    -0.629751987005E+03    0.46015E-04   -0.70577E-06  9840   0.352E-03    0.406E-01
DAV:  75    -0.629751953517E+03    0.33488E-04   -0.46453E-06  9504   0.250E-03    0.409E-01
DAV:  76    -0.629751957643E+03   -0.41260E-05   -0.35790E-07  7392   0.119E-03    0.409E-01
DAV:  77    -0.629752536163E+03   -0.57852E-03   -0.15831E-03 14016   0.465E-02    0.360E-01
DAV:  78    -0.629752578189E+03   -0.42025E-04   -0.77537E-05 11328   0.128E-02    0.362E-01
DAV:  79    -0.629752592823E+03   -0.14634E-04   -0.59597E-06 12864   0.327E-03    0.361E-01
DAV:  80    -0.629752591752E+03    0.10709E-05   -0.34587E-07  7056   0.127E-03    0.361E-01
