unknown system                          
           1
    11.598200    0.000000    0.000000
    -5.799100   10.044336    0.000000
     0.000000    0.000000   21.048200
   Ce   O    Ir
    21    63     6
Direct configuration=     1
   0.00000000  0.00000000  0.45993000
   0.22222000  0.11111000  0.30996000
   0.11111000  0.22222000  0.15999000
   0.55556000  0.11111000  0.30996000
   0.44444000  0.22222000  0.15999000
   0.88889000  0.11111000  0.30996000
   0.77778000  0.22222000  0.15999000
   0.00000000  0.33333000  0.45993000
   0.22222000  0.44444000  0.30996000
   0.11111000  0.55556000  0.15999000
   0.55556000  0.44444000  0.30996000
   0.44444000  0.55556000  0.15999000
   0.88889000  0.44444000  0.30996000
   0.77778000  0.55556000  0.15999000
   0.00000000  0.66667000  0.45993000
   0.22222000  0.77778000  0.30996000
   0.11111000  0.88889000  0.15999000
   0.55556000  0.77778000  0.30996000
   0.44444000  0.88889000  0.15999000
   0.88889000  0.77778000  0.30996000
   0.77778000  0.88889000  0.15999000
   0.00000000  0.00000000  0.12250000
   0.11111000  0.22222000  0.27247000
   0.22222000  0.11111000  0.42244000
   0.11111000  0.22222000  0.04751000
   0.11111000  0.22222000  0.49742000
   0.00000000  0.00000000  0.34745000
   0.22222000  0.11111000  0.19748000
   0.33333000  0.00000000  0.12250000
   0.44444000  0.22222000  0.27247000
   0.55556000  0.11111000  0.42244000
   0.44444000  0.22222000  0.04751000
   0.44444000  0.22222000  0.49742000
   0.33333000  0.00000000  0.34745000
   0.55556000  0.11111000  0.19748000
   0.66667000  0.00000000  0.12250000
   0.77778000  0.22222000  0.27247000
   0.88889000  0.11111000  0.42244000
   0.77778000  0.22222000  0.04751000
   0.77778000  0.22222000  0.49742000
   0.66667000  0.00000000  0.34745000
   0.88889000  0.11111000  0.19748000
   0.00000000  0.33333000  0.12250000
   0.11111000  0.55556000  0.27247000
   0.22222000  0.44444000  0.42244000
   0.11111000  0.55556000  0.04751000
   0.11111000  0.55556000  0.49742000
   0.00000000  0.33333000  0.34745000
   0.22222000  0.44444000  0.19748000
   0.33333000  0.33333000  0.12250000
   0.44444000  0.55556000  0.27247000
   0.55556000  0.44444000  0.42244000
   0.44444000  0.55556000  0.04751000
   0.44444000  0.55556000  0.49742000
   0.33333000  0.33333000  0.34745000
   0.55556000  0.44444000  0.19748000
   0.66667000  0.33333000  0.12250000
   0.77778000  0.55556000  0.27247000
   0.88889000  0.44444000  0.42244000
   0.77778000  0.55556000  0.04751000
   0.77778000  0.55556000  0.49742000
   0.66667000  0.33333000  0.34745000
   0.88889000  0.44444000  0.19748000
   0.00000000  0.66667000  0.12250000
   0.11111000  0.88889000  0.27247000
   0.22222000  0.77778000  0.42244000
   0.11111000  0.88889000  0.04751000
   0.11111000  0.88889000  0.49742000
   0.00000000  0.66667000  0.34745000
   0.22222000  0.77778000  0.19748000
   0.33333000  0.66667000  0.12250000
   0.44444000  0.88889000  0.27247000
   0.55556000  0.77778000  0.42244000
   0.44444000  0.88889000  0.04751000
   0.44444000  0.88889000  0.49742000
   0.33333000  0.66667000  0.34745000
   0.55556000  0.77778000  0.19748000
   0.66667000  0.66667000  0.12250000
   0.77778000  0.88889000  0.27247000
   0.88889000  0.77778000  0.42244000
   0.77778000  0.88889000  0.04751000
   0.77778000  0.88889000  0.49742000
   0.66667000  0.66667000  0.34745000
   0.88889000  0.77778000  0.19748000
   0.33333000  0.00000000  0.45993000
   0.66667000  0.00000000  0.45993000
   0.33333000  0.33333000  0.45993000
   0.66667000  0.33333000  0.45993000
   0.33333000  0.66667000  0.45993000
   0.66667000  0.66667000  0.45993000
Direct configuration=     2
   0.00053013  0.00026469  0.46047574
   0.22382292  0.11191995  0.30975141
   0.11111000  0.22222000  0.15999000
   0.55546030  0.11106080  0.30989357
   0.44444000  0.22222000  0.15999000
   0.88749070  0.11039412  0.30971874
   0.77778000  0.22222000  0.15999000
   0.00053205  0.33359783  0.46047715
   0.22385642  0.44526093  0.30972878
   0.11111000  0.55556000  0.15999000
   0.55546045  0.44441228  0.30985664
   0.44444000  0.55556000  0.15999000
   0.88749164  0.44375972  0.30971897
   0.77778000  0.55556000  0.15999000
   0.00052953  0.66693301  0.46047538
   0.22382232  0.77857132  0.30975184
   0.11111000  0.88889000  0.15999000
   0.55545915  0.77771103  0.30985699
   0.44444000  0.88889000  0.15999000
   0.88747600  0.77707187  0.30969039
   0.77778000  0.88889000  0.15999000
   0.00000000  0.00000000  0.12250000
   0.11105231  0.22218163  0.27269047
   0.22973163  0.11486536  0.42517116
   0.11111000  0.22222000  0.04751000
   0.11722488  0.22527774  0.49603493
   0.00062708  0.00031749  0.34867071
   0.22222000  0.11111000  0.19748000
   0.33333000  0.00000000  0.12250000
   0.44436570  0.22216356  0.27244997
   0.55557435  0.11111789  0.42687144
   0.44444000  0.22222000  0.04751000
   0.44464554  0.22232205  0.49493712
   0.33328454  0.99997728  0.34838150
   0.55556000  0.11111000  0.19748000
   0.66667000  0.00000000  0.12250000
   0.77790145  0.22228109  0.27254654
   0.88284609  0.10808853  0.42400870
   0.77778000  0.22222000  0.04751000
   0.76996894  0.21831441  0.49570929
   0.66643490  0.99989036  0.34828607
   0.88889000  0.11111000  0.19748000
   0.00000000  0.33333000  0.12250000
   0.11105209  0.55553867  0.27269017
   0.22972992  0.44819510  0.42517248
   0.11111000  0.55556000  0.04751000
   0.11722521  0.55861660  0.49603447
   0.00061687  0.33363918  0.34866829
   0.22222000  0.44444000  0.19748000
   0.33333000  0.33333000  0.12250000
   0.44436910  0.55552123  0.27247515
   0.55557400  0.44444749  0.42687439
   0.44444000  0.55556000  0.04751000
   0.44464680  0.55566281  0.49493683
   0.33327690  0.33329796  0.34838496
   0.55556000  0.44444000  0.19748000
   0.66667000  0.33333000  0.12250000
   0.77791300  0.55560901  0.27256902
   0.88284639  0.44141901  0.42400858
   0.77778000  0.55556000  0.04751000
   0.76996934  0.55165436  0.49570937
   0.66643521  0.33320581  0.34828554
   0.88889000  0.44444000  0.19748000
   0.00000000  0.66667000  0.12250000
   0.11107744  0.88887391  0.27269302
   0.22973141  0.78153614  0.42517119
   0.11111000  0.88889000  0.04751000
   0.11722713  0.89194860  0.49603475
   0.00062611  0.66697783  0.34867086
   0.22222000  0.77778000  0.19748000
   0.33333000  0.66667000  0.12250000
   0.44436553  0.88887040  0.27244966
   0.55557513  0.77778857  0.42687481
   0.44444000  0.88889000  0.04751000
   0.44464556  0.88899159  0.49493705
   0.33327574  0.66664737  0.34838567
   0.55556000  0.77778000  0.19748000
   0.66667000  0.66667000  0.12250000
   0.77791316  0.88897207  0.27256908
   0.88284664  0.77475838  0.42401119
   0.77778000  0.88889000  0.04751000
   0.76996771  0.88498443  0.49570950
   0.66643686  0.66655201  0.34829101
   0.88889000  0.77778000  0.19748000
   0.33372448  0.00019699  0.45783637
   0.66530902  0.99931893  0.45816613
   0.33372571  0.33352851  0.45783412
   0.66530856  0.33265088  0.45816600
   0.33372624  0.66686668  0.45783420
   0.66530868  0.66598983  0.45816262
Direct configuration=     3
   0.00124023  0.00061923  0.46120674
   0.22597001  0.11300486  0.30947200
   0.11111000  0.22222000  0.15999000
   0.55532676  0.11099491  0.30980459
   0.44444000  0.22222000  0.15999000
   0.88561635  0.10943521  0.30939557
   0.77778000  0.22222000  0.15999000
   0.00124472  0.33395658  0.46121006
   0.22604837  0.44636056  0.30941906
   0.11111000  0.55556000  0.15999000
   0.55532711  0.44437515  0.30971820
   0.44444000  0.55556000  0.15999000
   0.88561854  0.44284850  0.30939612
   0.77778000  0.55556000  0.15999000
   0.00123884  0.66728531  0.46120591
   0.22596860  0.77963128  0.30947302
   0.11111000  0.88889000  0.15999000
   0.55532406  0.77761865  0.30971900
   0.44444000  0.88889000  0.15999000
   0.88558196  0.77612334  0.30932926
   0.77778000  0.88889000  0.15999000
   0.00000000  0.00000000  0.12250000
   0.11097503  0.22213022  0.27298578
   0.23979338  0.11989562  0.42882952
   0.11111000  0.22222000  0.04751000
   0.12541569  0.22937355  0.49417964
   0.00146704  0.00074277  0.35030585
   0.22222000  0.11111000  0.19748000
   0.33333000  0.00000000  0.12250000
   0.44426617  0.22208796  0.27242313
   0.55559358  0.11112846  0.43280730
   0.44444000  0.22222000  0.04751000
   0.44492085  0.22245874  0.49161134
   0.33322365  0.99994685  0.34962923
   0.55556000  0.11111000  0.19748000
   0.66667000  0.00000000  0.12250000
   0.77806413  0.22236291  0.27264906
   0.87475034  0.10404131  0.42610995
   0.77778000  0.22222000  0.04751000
   0.75950611  0.21308291  0.49341782
   0.66612000  0.99974349  0.34940598
   0.88889000  0.11111000  0.19748000
   0.00000000  0.33333000  0.12250000
   0.11097451  0.55551010  0.27298507
   0.23978937  0.45322500  0.42883260
   0.11111000  0.55556000  0.04751000
   0.12541647  0.56271088  0.49417856
   0.00144317  0.33405331  0.35030017
   0.22222000  0.44444000  0.19748000
   0.33333000  0.33333000  0.12250000
   0.44427414  0.55546929  0.27248204
   0.55559275  0.44445752  0.43281421
   0.44444000  0.55556000  0.04751000
   0.44492380  0.55580051  0.49161065
   0.33320577  0.33325504  0.34963732
   0.55556000  0.44444000  0.19748000
   0.66667000  0.33333000  0.12250000
   0.77809115  0.55567466  0.27270165
   0.87475105  0.43737244  0.42610968
   0.77778000  0.55556000  0.04751000
   0.75950706  0.54642281  0.49341801
   0.66612072  0.33303947  0.34940474
   0.88889000  0.44444000  0.19748000
   0.00000000  0.66667000  0.12250000
   0.11103383  0.88885235  0.27299176
   0.23979286  0.78656744  0.42882959
   0.11111000  0.88889000  0.04751000
   0.12542097  0.89604557  0.49417923
   0.00146478  0.66739016  0.35030618
   0.22222000  0.77778000  0.19748000
   0.33333000  0.66667000  0.12250000
   0.44426579  0.88884414  0.27242242
   0.55559540  0.77780004  0.43281518
   0.44444000  0.88889000  0.04751000
   0.44492091  0.88912767  0.49161116
   0.33320305  0.66661705  0.34963898
   0.55556000  0.77778000  0.19748000
   0.66667000  0.66667000  0.12250000
   0.77809152  0.88908200  0.27270179
   0.87475162  0.77071096  0.42611579
   0.77778000  0.88889000  0.04751000
   0.75950323  0.87975295  0.49341832
   0.66612458  0.66639397  0.34941754
   0.88889000  0.77778000  0.19748000
   0.33425288  0.00046085  0.45503198
   0.66348601  0.99840665  0.45580344
   0.33425577  0.33379442  0.45502670
   0.66348493  0.33174121  0.45580315
   0.33425700  0.66713013  0.45502689
   0.66348520  0.66507876  0.45579524
Direct configuration=     4
   0.00167722  0.00083190  0.46089462
   0.22396873  0.11199866  0.30958394
   0.11111000  0.22222000  0.15999000
   0.55523032  0.11094942  0.31087738
   0.44444000  0.22222000  0.15999000
   0.88783370  0.11059133  0.30969553
   0.77778000  0.22222000  0.15999000
   0.00169094  0.33417889  0.46088713
   0.22396454  0.44531535  0.30953802
   0.11111000  0.55556000  0.15999000
   0.55521366  0.44426211  0.31080088
   0.44444000  0.55556000  0.15999000
   0.88783141  0.44390622  0.30969532
   0.77778000  0.55556000  0.15999000
   0.00167451  0.66750968  0.46089471
   0.22396772  0.77863923  0.30958472
   0.11111000  0.88889000  0.15999000
   0.55521369  0.77761772  0.31080154
   0.44444000  0.88889000  0.15999000
   0.88782836  0.77724805  0.30964361
   0.77778000  0.88889000  0.15999000
   0.00000000  0.00000000  0.12250000
   0.11121738  0.22224873  0.27419761
   0.24388248  0.12193966  0.42916693
   0.11111000  0.22222000  0.04751000
   0.13041258  0.23187146  0.49097792
   0.00278145  0.00139105  0.35290391
   0.22222000  0.11111000  0.19748000
   0.33333000  0.00000000  0.12250000
   0.44490295  0.22241436  0.27360784
   0.55321305  0.10993912  0.43256936
   0.44444000  0.22222000  0.04751000
   0.44744846  0.22372211  0.48772904
   0.33461887  0.00064288  0.35041577
   0.55556000  0.11111000  0.19748000
   0.66667000  0.00000000  0.12250000
   0.77746924  0.22206594  0.27390334
   0.87041548  0.10187054  0.42812793
   0.77778000  0.22222000  0.04751000
   0.75395466  0.21030708  0.49075023
   0.66391742  0.99863250  0.35022273
   0.88889000  0.11111000  0.19748000
   0.00000000  0.33333000  0.12250000
   0.11121778  0.55563518  0.27419693
   0.24388386  0.45527311  0.42916655
   0.11111000  0.55556000  0.04751000
   0.13041386  0.56520933  0.49097655
   0.00276650  0.33471655  0.35289936
   0.22222000  0.44444000  0.19748000
   0.33333000  0.33333000  0.12250000
   0.44493270  0.55579858  0.27366124
   0.55321105  0.44326905  0.43256900
   0.44444000  0.55556000  0.04751000
   0.44744838  0.55706208  0.48772607
   0.33461460  0.33396282  0.35041967
   0.55556000  0.44444000  0.19748000
   0.66667000  0.33333000  0.12250000
   0.77749003  0.55539010  0.27395228
   0.87041651  0.43520979  0.42812763
   0.77778000  0.55556000  0.04751000
   0.75395308  0.54364160  0.49074932
   0.66391961  0.33194960  0.35022064
   0.88889000  0.44444000  0.19748000
   0.00000000  0.66667000  0.12250000
   0.11125867  0.88896319  0.27419461
   0.24388127  0.78861172  0.42916662
   0.11111000  0.88889000  0.04751000
   0.13042215  0.89854591  0.49097756
   0.00278002  0.66805523  0.35290379
   0.22222000  0.77778000  0.19748000
   0.33333000  0.66667000  0.12250000
   0.44490162  0.88915164  0.27360778
   0.55321361  0.77660905  0.43256911
   0.44444000  0.88889000  0.04751000
   0.44744857  0.89038930  0.48772894
   0.33461188  0.66731835  0.35042095
   0.55556000  0.77778000  0.19748000
   0.66667000  0.66667000  0.12250000
   0.77748811  0.88876362  0.27395303
   0.87041536  0.76854268  0.42812645
   0.77778000  0.88889000  0.04751000
   0.75394825  0.87697976  0.49075015
   0.66393650  0.66530010  0.35021813
   0.88889000  0.77778000  0.19748000
   0.33877219  0.00272095  0.45632373
   0.65827828  0.99579745  0.45730088
   0.33878119  0.33606238  0.45631417
   0.65827517  0.32914303  0.45730091
   0.33878396  0.66938683  0.45631560
   0.65828448  0.66247854  0.45730165
Direct configuration=     5
   0.00192048  0.00095029  0.46072088
   0.22285473  0.11143857  0.30964625
   0.11111000  0.22222000  0.15999000
   0.55517664  0.11092409  0.31147454
   0.44444000  0.22222000  0.15999000
   0.88906797  0.11123488  0.30986250
   0.77778000  0.22222000  0.15999000
   0.00193933  0.33430264  0.46070737
   0.22280459  0.44473355  0.30960423
   0.11111000  0.55556000  0.15999000
   0.55515051  0.44419919  0.31140355
   0.44444000  0.55556000  0.15999000
   0.88906318  0.44449499  0.30986187
   0.77778000  0.55556000  0.15999000
   0.00191702  0.66763458  0.46072149
   0.22285395  0.77808701  0.30964690
   0.11111000  0.88889000  0.15999000
   0.55515225  0.77761721  0.31140412
   0.44444000  0.88889000  0.15999000
   0.88907880  0.77787411  0.30981859
   0.77778000  0.88889000  0.15999000
   0.00000000  0.00000000  0.12250000
   0.11135228  0.22231470  0.27487217
   0.24615864  0.12307745  0.42935474
   0.11111000  0.22222000  0.04751000
   0.13319405  0.23326191  0.48919571
   0.00351311  0.00175191  0.35435010
   0.22222000  0.11111000  0.19748000
   0.33333000  0.00000000  0.12250000
   0.44525741  0.22259606  0.27426729
   0.55188794  0.10927708  0.43243692
   0.44444000  0.22222000  0.04751000
   0.44885544  0.22442536  0.48556798
   0.33539551  0.00103033  0.35085359
   0.55556000  0.11111000  0.19748000
   0.66667000  0.00000000  0.12250000
   0.77713810  0.22190063  0.27460152
   0.86800251  0.10066219  0.42925122
   0.77778000  0.22222000  0.04751000
   0.75086449  0.20876194  0.48926533
   0.66269137  0.99801407  0.35067736
   0.88889000  0.11111000  0.19748000
   0.00000000  0.33333000  0.12250000
   0.11135320  0.55570481  0.27487150
   0.24616302  0.45641317  0.42935244
   0.11111000  0.55556000  0.04751000
   0.13319561  0.56660007  0.48919417
   0.00350312  0.33508574  0.35434618
   0.22222000  0.44444000  0.19748000
   0.33333000  0.33333000  0.12250000
   0.44529928  0.55598187  0.27431763
   0.55188530  0.44260751  0.43243251
   0.44444000  0.55556000  0.04751000
   0.44885367  0.55776432  0.48556374
   0.33539882  0.33435680  0.35085516
   0.55556000  0.44444000  0.19748000
   0.66667000  0.33333000  0.12250000
   0.77715542  0.55523170  0.27464843
   0.86800372  0.43400597  0.42925091
   0.77778000  0.55556000  0.04751000
   0.75086150  0.54209346  0.48926382
   0.66269439  0.33134293  0.35067480
   0.88889000  0.44444000  0.19748000
   0.00000000  0.66667000  0.12250000
   0.11138382  0.88902489  0.27486417
   0.24615704  0.78974966  0.42935423
   0.11111000  0.88889000  0.04751000
   0.13320602  0.89993770  0.48919538
   0.00351213  0.66842544  0.35434972
   0.22222000  0.77778000  0.19748000
   0.33333000  0.66667000  0.12250000
   0.44525555  0.88932281  0.27426760
   0.55188781  0.77594610  0.43243213
   0.44444000  0.88889000  0.04751000
   0.44885557  0.89109158  0.48556793
   0.33539610  0.66770872  0.35085623
   0.55556000  0.77778000  0.19748000
   0.66667000  0.66667000  0.12250000
   0.77715223  0.88858640  0.27464952
   0.86800161  0.76733573  0.42924566
   0.77778000  0.88889000  0.04751000
   0.75085611  0.87543609  0.48926494
   0.66271852  0.66469121  0.35066377
   0.88889000  0.77778000  0.19748000
   0.34128783  0.00397901  0.45704277
   0.65537944  0.99434507  0.45813442
   0.34130023  0.33732482  0.45703082
   0.65537520  0.32769678  0.45813463
   0.34130386  0.67064301  0.45703295
   0.65538954  0.66103115  0.45814019
Direct configuration=     6
   0.00228145  0.00112923  0.46102165
   0.22701965  0.11350815  0.31096678
   0.11111000  0.22222000  0.15999000
   0.55371832  0.11019494  0.31234799
   0.44444000  0.22222000  0.15999000
   0.88644352  0.10988198  0.31100596
   0.77778000  0.22222000  0.15999000
   0.00230339  0.33448523  0.46103135
   0.22702305  0.44684450  0.31092158
   0.11111000  0.55556000  0.15999000
   0.55372511  0.44351646  0.31229443
   0.44444000  0.55556000  0.15999000
   0.88644008  0.44322576  0.31100466
   0.77778000  0.55556000  0.15999000
   0.00227665  0.66781555  0.46102101
   0.22701775  0.78017812  0.31096790
   0.11111000  0.88889000  0.15999000
   0.55372305  0.77687035  0.31229610
   0.44444000  0.88889000  0.15999000
   0.88645458  0.77655993  0.31098473
   0.77778000  0.88889000  0.15999000
   0.00000000  0.00000000  0.12250000
   0.11001878  0.22166046  0.27636853
   0.24726494  0.12363041  0.42857911
   0.11111000  0.22222000  0.04751000
   0.13535164  0.23434283  0.48584629
   0.00446268  0.00222909  0.35597992
   0.22222000  0.11111000  0.19748000
   0.33333000  0.00000000  0.12250000
   0.44436062  0.22214474  0.27530033
   0.54728073  0.10697425  0.43002023
   0.44444000  0.22222000  0.04751000
   0.45479360  0.22740271  0.48464362
   0.33500285  0.00083459  0.35119877
   0.55556000  0.11111000  0.19748000
   0.66667000  0.00000000  0.12250000
   0.77959721  0.22312877  0.27643566
   0.86773894  0.10053287  0.43107182
   0.77778000  0.22222000  0.04751000
   0.74763645  0.20714681  0.48824401
   0.66228510  0.99782445  0.35210687
   0.88889000  0.11111000  0.19748000
   0.00000000  0.33333000  0.12250000
   0.11002132  0.55502615  0.27636729
   0.24726460  0.45696425  0.42857150
   0.11111000  0.55556000  0.04751000
   0.13535439  0.56767596  0.48584515
   0.00444321  0.33555501  0.35596382
   0.22222000  0.44444000  0.19748000
   0.33333000  0.33333000  0.12250000
   0.44438905  0.55552781  0.27533575
   0.54728156  0.44030862  0.43001057
   0.44444000  0.55556000  0.04751000
   0.45479822  0.56073693  0.48463784
   0.33499521  0.33415031  0.35120673
   0.55556000  0.44444000  0.19748000
   0.66667000  0.33333000  0.12250000
   0.77961754  0.55645859  0.27646547
   0.86773928  0.43387130  0.43107231
   0.77778000  0.55556000  0.04751000
   0.74762251  0.54047685  0.48824524
   0.66228734  0.33112761  0.35210082
   0.88889000  0.44444000  0.19748000
   0.00000000  0.66667000  0.12250000
   0.11005573  0.88836142  0.27634776
   0.24726352  0.79030311  0.42857941
   0.11111000  0.88889000  0.04751000
   0.13535978  0.90101493  0.48585049
   0.00446167  0.66889894  0.35598014
   0.22222000  0.77778000  0.19748000
   0.33333000  0.66667000  0.12250000
   0.44436091  0.88887843  0.27530051
   0.54728354  0.77364139  0.43000935
   0.44444000  0.88889000  0.04751000
   0.45479639  0.89405197  0.48464353
   0.33499420  0.66751065  0.35120914
   0.55556000  0.77778000  0.19748000
   0.66667000  0.66667000  0.12250000
   0.77961441  0.88982412  0.27646734
   0.86773252  0.76720185  0.43107633
   0.77778000  0.88889000  0.04751000
   0.74761765  0.87381463  0.48824712
   0.66230870  0.66448664  0.35210500
   0.88889000  0.77778000  0.19748000
   0.34507780  0.00587346  0.45623867
   0.64955293  0.99143078  0.45744577
   0.34509210  0.33922189  0.45621791
   0.64955051  0.32478647  0.45744932
   0.34509648  0.67253843  0.45621722
   0.64956494  0.65811841  0.45741701
Direct configuration=     7
   0.00235591  0.00116614  0.46108370
   0.22787877  0.11393505  0.31123917
   0.11111000  0.22222000  0.15999000
   0.55341751  0.11004454  0.31252816
   0.44444000  0.22222000  0.15999000
   0.88590216  0.10960291  0.31124182
   0.77778000  0.22222000  0.15999000
   0.00237848  0.33452290  0.46109818
   0.22789322  0.44727994  0.31119332
   0.11111000  0.55556000  0.15999000
   0.55343108  0.44337563  0.31247820
   0.44444000  0.55556000  0.15999000
   0.88589900  0.44296396  0.31124039
   0.77778000  0.55556000  0.15999000
   0.00235083  0.66785288  0.46108280
   0.22787664  0.78060946  0.31124039
   0.11111000  0.88889000  0.15999000
   0.55342825  0.77671630  0.31248009
   0.44444000  0.88889000  0.15999000
   0.88591327  0.77628884  0.31122527
   0.77778000  0.88889000  0.15999000
   0.00000000  0.00000000  0.12250000
   0.10974372  0.22152550  0.27667719
   0.24749315  0.12374448  0.42841912
   0.11111000  0.22222000  0.04751000
   0.13579670  0.23456580  0.48515539
   0.00465855  0.00232752  0.35631611
   0.22222000  0.11111000  0.19748000
   0.33333000  0.00000000  0.12250000
   0.44417564  0.22205164  0.27551342
   0.54633038  0.10649923  0.42952173
   0.44444000  0.22222000  0.04751000
   0.45601849  0.22801686  0.48445295
   0.33492186  0.00079421  0.35126997
   0.55556000  0.11111000  0.19748000
   0.66667000  0.00000000  0.12250000
   0.78010446  0.22338211  0.27681400
   0.86768458  0.10050620  0.43144736
   0.77778000  0.22222000  0.04751000
   0.74697059  0.20681364  0.48803334
   0.66220129  0.99778533  0.35240174
   0.88889000  0.11111000  0.19748000
   0.00000000  0.33333000  0.12250000
   0.10974659  0.55488616  0.27667583
   0.24749183  0.45707792  0.42841041
   0.11111000  0.55556000  0.04751000
   0.13579969  0.56789789  0.48515433
   0.00463713  0.33565181  0.35629750
   0.22222000  0.44444000  0.19748000
   0.33333000  0.33333000  0.12250000
   0.44420129  0.55543415  0.27554576
   0.54633193  0.43983442  0.42951099
   0.44444000  0.55556000  0.04751000
   0.45602443  0.56135010  0.48444684
   0.33491196  0.33410772  0.35127925
   0.55556000  0.44444000  0.19748000
   0.66667000  0.33333000  0.12250000
   0.78012542  0.55671167  0.27684028
   0.86768473  0.43384353  0.43144802
   0.77778000  0.55556000  0.04751000
   0.74695438  0.54014338  0.48803513
   0.66220337  0.33108319  0.35239497
   0.88889000  0.44444000  0.19748000
   0.00000000  0.66667000  0.12250000
   0.10978178  0.88822456  0.27665378
   0.24749176  0.79041727  0.42841958
   0.11111000  0.88889000  0.04751000
   0.13580405  0.90123713  0.48516052
   0.00465753  0.66899661  0.35631645
   0.22222000  0.77778000  0.19748000
   0.33333000  0.66667000  0.12250000
   0.44417637  0.88878676  0.27551358
   0.54633379  0.77316599  0.42950960
   0.44444000  0.88889000  0.04751000
   0.45602183  0.89466262  0.48445285
   0.33491130  0.66746980  0.35128194
   0.55556000  0.77778000  0.19748000
   0.66667000  0.66667000  0.12250000
   0.78012229  0.89007944  0.27684231
   0.86767701  0.76717423  0.43145395
   0.77778000  0.88889000  0.04751000
   0.74694964  0.87348017  0.48803718
   0.66222417  0.66444445  0.35240228
   0.88889000  0.77778000  0.19748000
   0.34585957  0.00626424  0.45607280
   0.64835107  0.99082963  0.45730371
   0.34587427  0.33961321  0.45605022
   0.64834902  0.32418615  0.45730796
   0.34587881  0.67292941  0.45604895
   0.64836348  0.65751758  0.45726784
Direct configuration=     8
   0.00304784  0.00152745  0.46099382
   0.22774441  0.11387139  0.31220514
   0.11111000  0.22222000  0.15999000
   0.55212845  0.10940455  0.31206892
   0.44444000  0.22222000  0.15999000
   0.88697816  0.11014124  0.31284377
   0.77778000  0.22222000  0.15999000
   0.00305967  0.33486510  0.46099808
   0.22776915  0.44721753  0.31216391
   0.11111000  0.55556000  0.15999000
   0.55213208  0.44271979  0.31203072
   0.44444000  0.55556000  0.15999000
   0.88696914  0.44349859  0.31284272
   0.77778000  0.55556000  0.15999000
   0.00303936  0.66818044  0.46099292
   0.22774296  0.78053772  0.31220653
   0.11111000  0.88889000  0.15999000
   0.55212468  0.77606437  0.31203239
   0.44444000  0.88889000  0.15999000
   0.88699725  0.77683056  0.31282649
   0.77778000  0.88889000  0.15999000
   0.00000000  0.00000000  0.12250000
   0.10841275  0.22086252  0.27805773
   0.25021927  0.12510341  0.42777309
   0.11111000  0.22222000  0.04751000
   0.13645291  0.23489646  0.48242948
   0.00476794  0.00237222  0.35749195
   0.22222000  0.11111000  0.19748000
   0.33333000  0.00000000  0.12250000
   0.44457716  0.22225882  0.27642625
   0.54322188  0.10494470  0.42654650
   0.44444000  0.22222000  0.04751000
   0.46138242  0.23071148  0.48564398
   0.33491317  0.00078995  0.35059196
   0.55556000  0.11111000  0.19748000
   0.66667000  0.00000000  0.12250000
   0.78134812  0.22400114  0.27860851
   0.86911600  0.10121759  0.43292787
   0.77778000  0.22222000  0.04751000
   0.74215326  0.20440147  0.48771487
   0.66189253  0.99762868  0.35499338
   0.88889000  0.11111000  0.19748000
   0.00000000  0.33333000  0.12250000
   0.10841758  0.55421968  0.27805603
   0.25022045  0.45844169  0.42776168
   0.11111000  0.55556000  0.04751000
   0.13645752  0.56822298  0.48242861
   0.00474461  0.33570464  0.35747981
   0.22222000  0.44444000  0.19748000
   0.33333000  0.33333000  0.12250000
   0.44460911  0.55563988  0.27644933
   0.54323178  0.43828891  0.42652063
   0.44444000  0.55556000  0.04751000
   0.46143366  0.56405558  0.48562363
   0.33491254  0.33410473  0.35060249
   0.55556000  0.44444000  0.19748000
   0.66667000  0.33333000  0.12250000
   0.78136939  0.55734819  0.27862860
   0.86911741  0.43456362  0.43292964
   0.77778000  0.55556000  0.04751000
   0.74212107  0.53773600  0.48771399
   0.66189486  0.33093192  0.35497103
   0.88889000  0.44444000  0.19748000
   0.00000000  0.66667000  0.12250000
   0.10844245  0.88755470  0.27803171
   0.25021870  0.79178535  0.42777441
   0.11111000  0.88889000  0.04751000
   0.13644915  0.90156024  0.48243836
   0.00476719  0.66906270  0.35749210
   0.22222000  0.77778000  0.19748000
   0.33333000  0.66667000  0.12250000
   0.44458129  0.88898265  0.27642695
   0.54323365  0.77161090  0.42651794
   0.44444000  0.88889000  0.04751000
   0.46139842  0.89733799  0.48564181
   0.33491317  0.66747307  0.35060543
   0.55556000  0.77778000  0.19748000
   0.66667000  0.66667000  0.12250000
   0.78136514  0.89069050  0.27863179
   0.86909668  0.76788483  0.43293599
   0.77778000  0.88889000  0.04751000
   0.74211420  0.87105608  0.48771622
   0.66191799  0.66429202  0.35502813
   0.88889000  0.77778000  0.19748000
   0.34399029  0.00533043  0.45496950
   0.64738524  0.99035941  0.45439212
   0.34399422  0.33867302  0.45494699
   0.64738863  0.32369607  0.45440828
   0.34399629  0.67198759  0.45494628
   0.64736515  0.65701536  0.45433212
Direct configuration=     9
   0.00346380  0.00174466  0.46093980
   0.22766364  0.11383312  0.31278585
   0.11111000  0.22222000  0.15999000
   0.55135352  0.10901982  0.31179285
   0.44444000  0.22222000  0.15999000
   0.88762500  0.11046485  0.31380680
   0.77778000  0.22222000  0.15999000
   0.00346917  0.33507082  0.46093790
   0.22769457  0.44718002  0.31274738
   0.11111000  0.55556000  0.15999000
   0.55135117  0.44232553  0.31176171
   0.44444000  0.55556000  0.15999000
   0.88761246  0.44381998  0.31380598
   0.77778000  0.55556000  0.15999000
   0.00345328  0.66837736  0.46093889
   0.22766261  0.78049460  0.31278733
   0.11111000  0.88889000  0.15999000
   0.55134103  0.77567246  0.31176325
   0.44444000  0.88889000  0.15999000
   0.88764889  0.77715621  0.31378907
   0.77778000  0.88889000  0.15999000
   0.00000000  0.00000000  0.12250000
   0.10761263  0.22046396  0.27888766
   0.25185810  0.12592034  0.42738473
   0.11111000  0.22222000  0.04751000
   0.13684740  0.23509523  0.48079078
   0.00483370  0.00239909  0.35819882
   0.22222000  0.11111000  0.19748000
   0.33333000  0.00000000  0.12250000
   0.44481853  0.22238337  0.27697501
   0.54135318  0.10401017  0.42475793
   0.44444000  0.22222000  0.04751000
   0.46460699  0.23233137  0.48635997
   0.33490794  0.00078739  0.35018436
   0.55556000  0.11111000  0.19748000
   0.66667000  0.00000000  0.12250000
   0.78209575  0.22437327  0.27968730
   0.86997651  0.10164524  0.43381789
   0.77778000  0.22222000  0.04751000
   0.73925728  0.20295137  0.48752341
   0.66170691  0.99753451  0.35655136
   0.88889000  0.11111000  0.19748000
   0.00000000  0.33333000  0.12250000
   0.10761864  0.55381901  0.27888574
   0.25186079  0.45926153  0.42737169
   0.11111000  0.55556000  0.04751000
   0.13685298  0.56841841  0.48079003
   0.00480923  0.33573640  0.35819056
   0.22222000  0.44444000  0.19748000
   0.33333000  0.33333000  0.12250000
   0.44485428  0.55576355  0.27699251
   0.54136811  0.43735982  0.42472296
   0.44444000  0.55556000  0.04751000
   0.46468546  0.56568199  0.48633107
   0.33491289  0.33410294  0.35019565
   0.55556000  0.44444000  0.19748000
   0.66667000  0.33333000  0.12250000