unknown system                          
           1
    11.598200    0.000000    0.000000
    -5.799100   10.044336    0.000000
     0.000000    0.000000   21.048200
   Ce   O    Ir
    21    63     6
Direct configuration=     1
   0.03159459  0.00488093  0.46014820
   0.22741894  0.10991892  0.30950993
   0.11111000  0.22222000  0.15999000
   0.54941502  0.10590126  0.31245476
   0.44444000  0.22222000  0.15999000
   0.89719564  0.11313895  0.31866687
   0.77778000  0.22222000  0.15999000
   0.02752381  0.34137406  0.46243184
   0.22807782  0.44524979  0.30831385
   0.11111000  0.55556000  0.15999000
   0.55235704  0.44565610  0.31080728
   0.44444000  0.55556000  0.15999000
   0.89570602  0.44575278  0.31639491
   0.77778000  0.55556000  0.15999000
   0.00499416  0.65660438  0.46380098
   0.22072915  0.77333339  0.30700564
   0.11111000  0.88889000  0.15999000
   0.55626779  0.77826036  0.30693775
   0.44444000  0.88889000  0.15999000
   0.89120528  0.77882037  0.31779054
   0.77778000  0.88889000  0.15999000
   0.00000000  0.00000000  0.12250000
   0.10948013  0.21985545  0.27585761
   0.23077504  0.05937273  0.42556991
   0.11111000  0.22222000  0.04751000
   0.15342338  0.24717569  0.50077478
   0.01049510  0.00370274  0.35274183
   0.22222000  0.11111000  0.19748000
   0.33333000  0.00000000  0.12250000
   0.46067255  0.23267309  0.27663407
   0.48370178  0.04249730  0.42758396
   0.44444000  0.22222000  0.04751000
   0.44659988  0.29466108  0.49827888
   0.33217926  0.99515203  0.32659411
   0.55556000  0.11111000  0.19748000
   0.66667000  0.00000000  0.12250000
   0.77420291  0.22422166  0.28621654
   0.93620531  0.12696176  0.43029871
   0.77778000  0.22222000  0.04751000
   0.69939051  0.09676952  0.50574282
   0.66816731  0.00005176  0.37006714
   0.88889000  0.11111000  0.19748000
   0.00000000  0.33333000  0.12250000
   0.09853341  0.54740451  0.27493251
   0.24331704  0.47734775  0.43011789
   0.11111000  0.55556000  0.04751000
   0.13412089  0.56633567  0.51222058
   0.01487935  0.33684961  0.35400247
   0.22222000  0.44444000  0.19748000
   0.33333000  0.33333000  0.12250000
   0.45845173  0.55663243  0.27498942
   0.51409471  0.48661718  0.43089637
   0.44444000  0.55556000  0.04751000
   0.44149579  0.60785170  0.51194385
   0.33169987  0.32909074  0.34886023
   0.55556000  0.44444000  0.19748000
   0.66667000  0.33333000  0.12250000
   0.77223783  0.54810076  0.28293098
   0.91603369  0.44507441  0.43055826
   0.77778000  0.55556000  0.04751000
   0.75213849  0.53961433  0.49681232
   0.64139336  0.33840678  0.37975780
   0.88889000  0.44444000  0.19748000
   0.00000000  0.66667000  0.12250000
   0.09946619  0.87974776  0.27562859
   0.22292225  0.74434789  0.42162312
   0.11111000  0.88889000  0.04751000
   0.13528561  0.86806503  0.50798617
   0.99947416  0.66268290  0.35501811
   0.22222000  0.77778000  0.19748000
   0.33333000  0.66667000  0.12250000
   0.46669984  0.90080182  0.27441630
   0.48627213  0.76088733  0.41983096
   0.44444000  0.88889000  0.04751000
   0.40722370  0.85927246  0.50354454
   0.33340991  0.66403225  0.32259785
   0.55556000  0.77778000  0.19748000
   0.66667000  0.66667000  0.12250000
   0.77870076  0.89466817  0.28011793
   0.92414262  0.79677987  0.42987401
   0.77778000  0.88889000  0.04751000
   0.68842184  0.86425731  0.48279927
   0.67348641  0.68415674  0.36566076
   0.88889000  0.77778000  0.19748000
   0.30665960  0.95285333  0.46596881
   0.59002428  0.96075418  0.45670168
   0.33088730  0.37239526  0.46853006
   0.61117741  0.39490296  0.45949591
   0.31488073  0.66363419  0.47159781
   0.59703578  0.68635793  0.45304875
Direct configuration=     2
   0.03230178  0.00567928  0.45896999
   0.22940649  0.11116429  0.30939376
   0.11111000  0.22222000  0.15999000
   0.54928628  0.10774309  0.31180643
   0.44444000  0.22222000  0.15999000
   0.89779948  0.11423996  0.31800567
   0.77778000  0.22222000  0.15999000
   0.02771910  0.34219570  0.46174534
   0.22881366  0.44492162  0.30814487
   0.11111000  0.55556000  0.15999000
   0.55268089  0.44494510  0.31053044
   0.44444000  0.55556000  0.15999000
   0.89491027  0.44570540  0.31560173
   0.77778000  0.55556000  0.15999000
   0.00490283  0.65597473  0.46325918
   0.22190501  0.77462463  0.30698701
   0.11111000  0.88889000  0.15999000
   0.55448973  0.77686722  0.30609080
   0.44444000  0.88889000  0.15999000
   0.89176914  0.77820665  0.31702629
   0.77778000  0.88889000  0.15999000
   0.00000000  0.00000000  0.12250000
   0.10902175  0.21955164  0.27540774
   0.23218628  0.05935918  0.42631369
   0.11111000  0.22222000  0.04751000
   0.15550656  0.24840887  0.50039786
   0.01048730  0.00357132  0.35311370
   0.22222000  0.11111000  0.19748000
   0.33333000  0.00000000  0.12250000
   0.45816621  0.22936345  0.27546890
   0.48265826  0.04136534  0.42807153
   0.44444000  0.22222000  0.04751000
   0.44648021  0.29446224  0.49846200
   0.32843371  0.99205414  0.32704189
   0.55556000  0.11111000  0.19748000
   0.66667000  0.00000000  0.12250000
   0.77625669  0.22556505  0.28602246
   0.93561466  0.12720085  0.43129964
   0.77778000  0.22222000  0.04751000
   0.69901613  0.09724079  0.50564380
   0.66685330  0.99864988  0.37210434
   0.88889000  0.11111000  0.19748000
   0.00000000  0.33333000  0.12250000
   0.09833140  0.54783105  0.27464750
   0.24350663  0.47753066  0.43029404
   0.11111000  0.55556000  0.04751000
   0.13324489  0.56571863  0.51171649
   0.01458937  0.33697995  0.35470974
   0.22222000  0.44444000  0.19748000
   0.33333000  0.33333000  0.12250000
   0.45590113  0.56023982  0.27366211
   0.51370383  0.48661485  0.43137049
   0.44444000  0.55556000  0.04751000
   0.44188019  0.60837434  0.51088157
   0.32648478  0.32641574  0.35039365
   0.55556000  0.44444000  0.19748000
   0.66667000  0.33333000  0.12250000
   0.77836415  0.55116858  0.28238911
   0.91588651  0.44464526  0.43119782
   0.77778000  0.55556000  0.04751000
   0.75142541  0.53960327  0.49645623
   0.64239561  0.33815193  0.38218565
   0.88889000  0.44444000  0.19748000
   0.00000000  0.66667000  0.12250000
   0.09912136  0.87918304  0.27549866
   0.22341042  0.74501331  0.42216737
   0.11111000  0.88889000  0.04751000
   0.13707004  0.86895430  0.50841819
   0.99995435  0.66302911  0.35526091
   0.22222000  0.77778000  0.19748000
   0.33333000  0.66667000  0.12250000
   0.46581875  0.89858993  0.27390035
   0.48528647  0.75942995  0.42038207
   0.44444000  0.88889000  0.04751000
   0.40840469  0.85850576  0.50357210
   0.33280128  0.66503309  0.32315328
   0.55556000  0.77778000  0.19748000
   0.66667000  0.66667000  0.12250000
   0.77886813  0.89407811  0.27995122
   0.92433290  0.79718424  0.43094273
   0.77778000  0.88889000  0.04751000
   0.68688913  0.86199938  0.48234741
   0.67262306  0.68618461  0.36760444
   0.88889000  0.77778000  0.19748000
   0.30457582  0.95284276  0.46540838
   0.59060052  0.96176413  0.45592046
   0.33091695  0.37231536  0.46777723
   0.61159479  0.39355235  0.45858130
   0.31690425  0.66406455  0.47108854
   0.59781175  0.68746287  0.45290396
Direct configuration=     3
   0.03229454  0.00567111  0.45898205
   0.22938614  0.11115154  0.30939495
   0.11111000  0.22222000  0.15999000
   0.54928760  0.10772423  0.31181307
   0.44444000  0.22222000  0.15999000
   0.89779330  0.11422869  0.31801244
   0.77778000  0.22222000  0.15999000
   0.02771710  0.34218729  0.46175237
   0.22880613  0.44492498  0.30814660
   0.11111000  0.55556000  0.15999000
   0.55267758  0.44495238  0.31053327
   0.44444000  0.55556000  0.15999000
   0.89491842  0.44570589  0.31560985
   0.77778000  0.55556000  0.15999000
   0.00490376  0.65598118  0.46326473
   0.22189297  0.77461141  0.30698720
   0.11111000  0.88889000  0.15999000
   0.55450793  0.77688149  0.30609947
   0.44444000  0.88889000  0.15999000
   0.89176337  0.77821294  0.31703411
   0.77778000  0.88889000  0.15999000
   0.00000000  0.00000000  0.12250000
   0.10902644  0.21955475  0.27541235
   0.23217183  0.05935931  0.42630608
   0.11111000  0.22222000  0.04751000
   0.15548524  0.24839625  0.50040172
   0.01048738  0.00357267  0.35310990
   0.22222000  0.11111000  0.19748000
   0.33333000  0.00000000  0.12250000
   0.45819187  0.22939733  0.27548082
   0.48266894  0.04137693  0.42806654
   0.44444000  0.22222000  0.04751000
   0.44648143  0.29446428  0.49846013
   0.32847206  0.99208586  0.32703731
   0.55556000  0.11111000  0.19748000
   0.66667000  0.00000000  0.12250000
   0.77623567  0.22555129  0.28602444
   0.93562070  0.12719841  0.43128939
   0.77778000  0.22222000  0.04751000
   0.69901996  0.09723597  0.50564482
   0.66686675  0.99866423  0.37208348
   0.88889000  0.11111000  0.19748000
   0.00000000  0.33333000  0.12250000
   0.09833347  0.54782668  0.27465041
   0.24350469  0.47752879  0.43029224
   0.11111000  0.55556000  0.04751000
   0.13325386  0.56572495  0.51172165
   0.01459234  0.33697862  0.35470250
   0.22222000  0.44444000  0.19748000
   0.33333000  0.33333000  0.12250000
   0.45592724  0.56020289  0.27367570
   0.51370783  0.48661487  0.43136564
   0.44444000  0.55556000  0.04751000
   0.44187626  0.60836899  0.51089244
   0.32653817  0.32644313  0.35037796
   0.55556000  0.44444000  0.19748000
   0.66667000  0.33333000  0.12250000
   0.77830143  0.55113717  0.28239465
   0.91588801  0.44464965  0.43119127
   0.77778000  0.55556000  0.04751000
   0.75143271  0.53960339  0.49645988
   0.64238535  0.33815454  0.38216079
   0.88889000  0.44444000  0.19748000
   0.00000000  0.66667000  0.12250000
   0.09912489  0.87918883  0.27549999
   0.22340542  0.74500650  0.42216180
   0.11111000  0.88889000  0.04751000
   0.13705177  0.86894519  0.50841377
   0.99994944  0.66302557  0.35525842
   0.22222000  0.77778000  0.19748000
   0.33333000  0.66667000  0.12250000
   0.46582777  0.89861257  0.27390563
   0.48529656  0.75944487  0.42037643
   0.44444000  0.88889000  0.04751000
   0.40839260  0.85851361  0.50357182
   0.33280751  0.66502285  0.32314760
   0.55556000  0.77778000  0.19748000
   0.66667000  0.66667000  0.12250000
   0.77886642  0.89408415  0.27995292
   0.92433095  0.79718010  0.43093179
   0.77778000  0.88889000  0.04751000
   0.68690482  0.86202250  0.48235204
   0.67263190  0.68616385  0.36758454
   0.88889000  0.77778000  0.19748000
   0.30459716  0.95284287  0.46541411
   0.59059462  0.96175379  0.45592845
   0.33091664  0.37231617  0.46778493
   0.61159052  0.39356618  0.45859066
   0.31688353  0.66406015  0.47109375
   0.59780380  0.68745155  0.45290544
Direct configuration=     4
   0.03210674  0.00545909  0.45929494
   0.22885832  0.11082081  0.30942580
   0.11111000  0.22222000  0.15999000
   0.54932179  0.10723511  0.31198524
   0.44444000  0.22222000  0.15999000
   0.89763294  0.11393630  0.31818803
   0.77778000  0.22222000  0.15999000
   0.02766524  0.34196909  0.46193468
   0.22861072  0.44501213  0.30819147
   0.11111000  0.55556000  0.15999000
   0.55259157  0.44514119  0.31060679
   0.44444000  0.55556000  0.15999000
   0.89512974  0.44571847  0.31582049
   0.77778000  0.55556000  0.15999000
   0.00492802  0.65614839  0.46340861
   0.22158070  0.77426850  0.30699215
   0.11111000  0.88889000  0.15999000
   0.55498012  0.77725145  0.30632439
   0.44444000  0.88889000  0.15999000
   0.89161362  0.77837592  0.31723707
   0.77778000  0.88889000  0.15999000
   0.00000000  0.00000000  0.12250000
   0.10914817  0.21963543  0.27553182
   0.23179706  0.05936291  0.42610855
   0.11111000  0.22222000  0.04751000
   0.15493202  0.24806876  0.50050182
   0.01048945  0.00360757  0.35301114
   0.22222000  0.11111000  0.19748000
   0.33333000  0.00000000  0.12250000
   0.45885747  0.23027625  0.27579025
   0.48294606  0.04167754  0.42793706
   0.44444000  0.22222000  0.04751000
   0.44651321  0.29451708  0.49841150
   0.32946674  0.99290855  0.32691839
   0.55556000  0.11111000  0.19748000
   0.66667000  0.00000000  0.12250000
   0.77569026  0.22519454  0.28607599
   0.93577756  0.12713491  0.43102358
   0.77778000  0.22222000  0.04751000
   0.69911938  0.09711081  0.50567111
   0.66721571  0.99903652  0.37154248
   0.88889000  0.11111000  0.19748000
   0.00000000  0.33333000  0.12250000
   0.09838712  0.54771341  0.27472610
   0.24345434  0.47748021  0.43024546
   0.11111000  0.55556000  0.04751000
   0.13348649  0.56588881  0.51185552
   0.01466935  0.33694400  0.35451468
   0.22222000  0.44444000  0.19748000
   0.33333000  0.33333000  0.12250000
   0.45660459  0.55924490  0.27402819
   0.51381164  0.48661549  0.43123973
   0.44444000  0.55556000  0.04751000
   0.44177417  0.60823019  0.51117455
   0.32792311  0.32715351  0.34997073
   0.55556000  0.44444000  0.19748000
   0.66667000  0.33333000  0.12250000
   0.77667450  0.55032247  0.28253855
   0.91592710  0.44476362  0.43102143
   0.77778000  0.55556000  0.04751000
   0.75162208  0.53960632  0.49655444
   0.64211919  0.33822222  0.38151604
   0.88889000  0.44444000  0.19748000
   0.00000000  0.66667000  0.12250000
   0.09921647  0.87933879  0.27553450
   0.22327578  0.74482979  0.42201727
   0.11111000  0.88889000  0.04751000
   0.13657789  0.86870904  0.50829904
   0.99982192  0.66293363  0.35519395
   0.22222000  0.77778000  0.19748000
   0.33333000  0.66667000  0.12250000
   0.46606176  0.89919997  0.27404265
   0.48555832  0.75983190  0.42023007
   0.44444000  0.88889000  0.04751000
   0.40807897  0.85871722  0.50356450
   0.33296914  0.66475706  0.32300010
   0.55556000  0.77778000  0.19748000
   0.66667000  0.66667000  0.12250000
   0.77882197  0.89424085  0.27999720
   0.92428042  0.79707271  0.43064797
   0.77778000  0.88889000  0.04751000
   0.68731185  0.86262212  0.48247203
   0.67286118  0.68562532  0.36706837
   0.88889000  0.77778000  0.19748000
   0.30515053  0.95284567  0.46556294
   0.59044159  0.96148559  0.45613592
   0.33090877  0.37233739  0.46798486
   0.61147968  0.39392485  0.45883355
   0.31634616  0.66394586  0.47122899
   0.59759773  0.68715812  0.45294389
Direct configuration=     5
   0.03185066  0.00517001  0.45972157
   0.22813863  0.11036987  0.30946786
   0.11111000  0.22222000  0.15999000
   0.54936841  0.10656819  0.31222000
   0.44444000  0.22222000  0.15999000
   0.89741429  0.11353763  0.31842745
   0.77778000  0.22222000  0.15999000
   0.02759453  0.34167158  0.46218326
   0.22834427  0.44513096  0.30825266
   0.11111000  0.55556000  0.15999000
   0.55247431  0.44539865  0.31070704
   0.44444000  0.55556000  0.15999000
   0.89541788  0.44573563  0.31610770
   0.77778000  0.55556000  0.15999000
   0.00496109  0.65637639  0.46360480
   0.22115493  0.77380094  0.30699889
   0.11111000  0.88889000  0.15999000
   0.55562395  0.77775591  0.30663107
   0.44444000  0.88889000  0.15999000
   0.89140945  0.77859814  0.31751381
   0.77778000  0.88889000  0.15999000
   0.00000000  0.00000000  0.12250000
   0.10931415  0.21974544  0.27569471
   0.23128605  0.05936782  0.42583923
   0.11111000  0.22222000  0.04751000
   0.15417770  0.24762222  0.50063830
   0.01049228  0.00365516  0.35287649
   0.22222000  0.11111000  0.19748000
   0.33333000  0.00000000  0.12250000
   0.45976501  0.23147467  0.27621216
   0.48332392  0.04208742  0.42776051
   0.44444000  0.22222000  0.04751000
   0.44655655  0.29458908  0.49834519
   0.33082300  0.99403029  0.32675625
   0.55556000  0.11111000  0.19748000
   0.66667000  0.00000000  0.12250000
   0.77494658  0.22470810  0.28614627
   0.93599143  0.12704834  0.43066115
   0.77778000  0.22222000  0.04751000
   0.69925494  0.09694016  0.50570697
   0.66769151  0.99954414  0.37080481
   0.88889000  0.11111000  0.19748000
   0.00000000  0.33333000  0.12250000
   0.09846026  0.54755896  0.27482930
   0.24338569  0.47741398  0.43018168
   0.11111000  0.55556000  0.04751000
   0.13380369  0.56611224  0.51203805
   0.01477435  0.33689680  0.35425858
   0.22222000  0.44444000  0.19748000
   0.33333000  0.33333000  0.12250000
   0.45752816  0.55793867  0.27450880
   0.51395317  0.48661634  0.43106805
   0.44444000  0.55556000  0.04751000
   0.44163498  0.60804094  0.51155920
   0.32981149  0.32812213  0.34941548
   0.55556000  0.44444000  0.19748000
   0.66667000  0.33333000  0.12250000
   0.77445617  0.54921161  0.28273477
   0.91598040  0.44491902  0.43078984
   0.77778000  0.55556000  0.04751000
   0.75188029  0.53961033  0.49668338
   0.64175627  0.33831450  0.38063692
   0.88889000  0.44444000  0.19748000
   0.00000000  0.66667000  0.12250000
   0.09934133  0.87954328  0.27558154
   0.22309901  0.74458884  0.42182019
   0.11111000  0.88889000  0.04751000
   0.13593175  0.86838704  0.50814260
   0.99964804  0.66280826  0.35510603
   0.22222000  0.77778000  0.19748000
   0.33333000  0.66667000  0.12250000
   0.46638080  0.90000089  0.27422948
   0.48591522  0.76035961  0.42003052
   0.44444000  0.88889000  0.04751000
   0.40765133  0.85899484  0.50355452
   0.33318953  0.66439466  0.32279897
   0.55556000  0.77778000  0.19748000
   0.66667000  0.66667000  0.12250000
   0.77876137  0.89445451  0.28005756
   0.92421152  0.79692629  0.43026099
   0.77778000  0.88889000  0.04751000
   0.68786684  0.86343971  0.48263565
   0.67317379  0.68489103  0.36636457
   0.88889000  0.77778000  0.19748000
   0.30590507  0.95284950  0.46576587
   0.59023294  0.96111988  0.45641880
   0.33089803  0.37236632  0.46825746
   0.61132855  0.39441390  0.45916473
   0.31561344  0.66379002  0.47141340
   0.59731675  0.68675803  0.45299632
Direct configuration=     6
   0.03178076  0.00509110  0.45983803
   0.22794218  0.11024677  0.30947935
   0.11111000  0.22222000  0.15999000
   0.54938113  0.10638614  0.31228408
   0.44444000  0.22222000  0.15999000
   0.89735461  0.11342880  0.31849281
   0.77778000  0.22222000  0.15999000
   0.02757523  0.34159037  0.46225111
   0.22827154  0.44516339  0.30826937
   0.11111000  0.55556000  0.15999000
   0.55244230  0.44546892  0.31073440
   0.44444000  0.55556000  0.15999000
   0.89549653  0.44574031  0.31618609
   0.77778000  0.55556000  0.15999000
   0.00497011  0.65643862  0.46365835
   0.22103870  0.77367332  0.30700073
   0.11111000  0.88889000  0.15999000
   0.55579970  0.77789361  0.30671479
   0.44444000  0.88889000  0.15999000
   0.89135372  0.77865880  0.31758935
   0.77778000  0.88889000  0.15999000
   0.00000000  0.00000000  0.12250000
   0.10935945  0.21977547  0.27573918
   0.23114656  0.05936916  0.42576572
   0.11111000  0.22222000  0.04751000
   0.15397180  0.24750034  0.50067555
   0.01049305  0.00366815  0.35283973
   0.22222000  0.11111000  0.19748000
   0.33333000  0.00000000  0.12250000
   0.46001274  0.23180180  0.27632732
   0.48342706  0.04219930  0.42771232
   0.44444000  0.22222000  0.04751000
   0.44656838  0.29460873  0.49832709
   0.33119321  0.99433648  0.32671199
   0.55556000  0.11111000  0.19748000
   0.66667000  0.00000000  0.12250000
   0.77474359  0.22457532  0.28616545
   0.93604981  0.12702470  0.43056222
   0.77778000  0.22222000  0.04751000
   0.69929195  0.09689358  0.50571676
   0.66782139  0.99968270  0.37060345
   0.88889000  0.11111000  0.19748000
   0.00000000  0.33333000  0.12250000
   0.09848023  0.54751680  0.27485747
   0.24336695  0.47739590  0.43016427
   0.11111000  0.55556000  0.04751000
   0.13389027  0.56617323  0.51208788
   0.01480301  0.33688392  0.35418867
   0.22222000  0.44444000  0.19748000
   0.33333000  0.33333000  0.12250000
   0.45778026  0.55758211  0.27464000
   0.51399181  0.48661657  0.43102119
   0.44444000  0.55556000  0.04751000
   0.44159699  0.60798929  0.51166420
   0.33032695  0.32838652  0.34926392
   0.55556000  0.44444000  0.19748000
   0.66667000  0.33333000  0.12250000
   0.77385064  0.54890839  0.28278832
   0.91599494  0.44496143  0.43072663
   0.77778000  0.55556000  0.04751000
   0.75195077  0.53961142  0.49671857
   0.64165721  0.33833969  0.38039695
   0.88889000  0.44444000  0.19748000
   0.00000000  0.66667000  0.12250000
   0.09937541  0.87959910  0.27559438
   0.22305076  0.74452307  0.42176640
   0.11111000  0.88889000  0.04751000
   0.13575538  0.86829914  0.50809990
   0.99960058  0.66277405  0.35508203
   0.22222000  0.77778000  0.19748000
   0.33333000  0.66667000  0.12250000
   0.46646788  0.90021952  0.27428047
   0.48601264  0.76050366  0.41997604
   0.44444000  0.88889000  0.04751000
   0.40753460  0.85907062  0.50355180
   0.33324968  0.66429573  0.32274407
   0.55556000  0.77778000  0.19748000
   0.66667000  0.66667000  0.12250000
   0.77874483  0.89451283  0.28007404
   0.92419271  0.79688632  0.43015536
   0.77778000  0.88889000  0.04751000
   0.68801834  0.86366289  0.48268031
   0.67325913  0.68469059  0.36617245
   0.88889000  0.77778000  0.19748000
   0.30611103  0.95285055  0.46582127
   0.59017598  0.96102006  0.45649602
   0.33089510  0.37237422  0.46833187
   0.61128729  0.39454740  0.45925513
   0.31541344  0.66374749  0.47146374
   0.59724006  0.68664882  0.45301063
Direct configuration=     7
   0.03219848  0.00591073  0.45949677
   0.22790086  0.11016113  0.30925926
   0.11111000  0.22222000  0.15999000
   0.54881038  0.10604129  0.31178597
   0.44444000  0.22222000  0.15999000
   0.89782746  0.11391430  0.31817310
   0.77778000  0.22222000  0.15999000
   0.02782592  0.34252071  0.46252463
   0.22787733  0.44533031  0.30813212
   0.11111000  0.55556000  0.15999000
   0.55181387  0.44508858  0.31020940
   0.44444000  0.55556000  0.15999000
   0.89604460  0.44603896  0.31581829
   0.77778000  0.55556000  0.15999000
   0.00537641  0.65589945  0.46383511
   0.22144133  0.77367842  0.30706007
   0.11111000  0.88889000  0.15999000
   0.55493729  0.77763821  0.30649997
   0.44444000  0.88889000  0.15999000
   0.89210762  0.77894632  0.31720697
   0.77778000  0.88889000  0.15999000
   0.00000000  0.00000000  0.12250000
   0.10896748  0.21948213  0.27565592
   0.23235690  0.05995069  0.42590683
   0.11111000  0.22222000  0.04751000
   0.15529164  0.24801011  0.50041090
   0.01060342  0.00388826  0.35262768
   0.22222000  0.11111000  0.19748000
   0.33333000  0.00000000  0.12250000
   0.45987119  0.23210825  0.27651938
   0.48249472  0.04184669  0.42737433
   0.44444000  0.22222000  0.04751000
   0.44684374  0.29453553  0.49845324
   0.33114904  0.99426886  0.32681588
   0.55556000  0.11111000  0.19748000
   0.66667000  0.00000000  0.12250000
   0.77455079  0.22441355  0.28631621
   0.93527447  0.12684966  0.43085437
   0.77778000  0.22222000  0.04751000
   0.69870272  0.09702258  0.50547784
   0.66723425  0.99928972  0.37116586
   0.88889000  0.11111000  0.19748000
   0.00000000  0.33333000  0.12250000
   0.09823774  0.54743970  0.27487484
   0.24329804  0.47717070  0.42980537
   0.11111000  0.55556000  0.04751000
   0.13234493  0.56529562  0.51166320
   0.01451132  0.33668249  0.35410076
   0.22222000  0.44444000  0.19748000
   0.33333000  0.33333000  0.12250000
   0.45768240  0.55732771  0.27463358
   0.51405837  0.48651663  0.43057037
   0.44444000  0.55556000  0.04751000
   0.44150976  0.60811726  0.51096928
   0.32981157  0.32787857  0.34942585
   0.55556000  0.44444000  0.19748000
   0.66667000  0.33333000  0.12250000
   0.77405449  0.54943733  0.28295854
   0.91538830  0.44458890  0.43080825
   0.77778000  0.55556000  0.04751000
   0.75089049  0.53918705  0.49633034
   0.64177935  0.33791707  0.38022673
   0.88889000  0.44444000  0.19748000
   0.00000000  0.66667000  0.12250000
   0.09902498  0.87954983  0.27561764
   0.22328932  0.74500040  0.42185752
   0.11111000  0.88889000  0.04751000
   0.13676556  0.86880285  0.50856290
   0.99946245  0.66280630  0.35484645
   0.22222000  0.77778000  0.19748000
   0.33333000  0.66667000  0.12250000
   0.46640887  0.90042110  0.27437945
   0.48582621  0.75960136  0.41994073
   0.44444000  0.88889000  0.04751000
   0.40843473  0.85850094  0.50355203
   0.33274557  0.66433094  0.32302155
   0.55556000  0.77778000  0.19748000
   0.66667000  0.66667000  0.12250000
   0.77919680  0.89435839  0.28012414
   0.92428474  0.79718023  0.43073127
   0.77778000  0.88889000  0.04751000
   0.68737012  0.86245092  0.48242915
   0.67292208  0.68528505  0.36644894
   0.88889000  0.77778000  0.19748000
   0.30498861  0.95261248  0.46577194
   0.59092782  0.96207830  0.45708376
   0.33105246  0.37245487  0.46827456
   0.61143515  0.39461511  0.45991729
   0.31708412  0.66445959  0.47135215
   0.59701911  0.68708721  0.45346574
Direct configuration=     8
   0.03228736  0.00608511  0.45942416
   0.22789207  0.11014290  0.30921243
   0.11111000  0.22222000  0.15999000
   0.54868894  0.10596792  0.31168000
   0.44444000  0.22222000  0.15999000
   0.89792807  0.11401760  0.31810508
   0.77778000  0.22222000  0.15999000
   0.02787926  0.34271865  0.46258283
   0.22779346  0.44536582  0.30810292
   0.11111000  0.55556000  0.15999000
   0.55168017  0.44500766  0.31009770
   0.44444000  0.55556000  0.15999000
   0.89616121  0.44610250  0.31574003
   0.77778000  0.55556000  0.15999000
   0.00546285  0.65578474  0.46387272
   0.22152699  0.77367951  0.30707270
   0.11111000  0.88889000  0.15999000
   0.55475380  0.77758387  0.30645426
   0.44444000  0.88889000  0.15999000
   0.89226802  0.77900749  0.31712562
   0.77778000  0.88889000  0.15999000
   0.00000000  0.00000000  0.12250000
   0.10888408  0.21941972  0.27563820
   0.23261442  0.06007442  0.42593686
   0.11111000  0.22222000  0.04751000
   0.15557246  0.24811857  0.50035459
   0.01062690  0.00393509  0.35258256
   0.22222000  0.11111000  0.19748000
   0.33333000  0.00000000  0.12250000
   0.45984108  0.23217345  0.27656025
   0.48229635  0.04177167  0.42730243
   0.44444000  0.22222000  0.04751000
   0.44690233  0.29451995  0.49848008
   0.33113964  0.99425448  0.32683799
   0.55556000  0.11111000  0.19748000
   0.66667000  0.00000000  0.12250000
   0.77450977  0.22437914  0.28634829
   0.93510951  0.12681242  0.43091652
   0.77778000  0.22222000  0.04751000
   0.69857736  0.09705003  0.50542701
   0.66710933  0.99920611  0.37128552
   0.88889000  0.11111000  0.19748000
   0.00000000  0.33333000  0.12250000
   0.09818615  0.54742330  0.27487854
   0.24328338  0.47712279  0.42972901
   0.11111000  0.55556000  0.04751000
   0.13201614  0.56510890  0.51157285
   0.01444926  0.33663963  0.35408206
   0.22222000  0.44444000  0.19748000
   0.33333000  0.33333000  0.12250000
   0.45766158  0.55727358  0.27463222
   0.51407253  0.48649537  0.43047445
   0.44444000  0.55556000  0.04751000
   0.44149120  0.60814449  0.51082143
   0.32970191  0.32777050  0.34946031
   0.55556000  0.44444000  0.19748000
   0.66667000  0.33333000  0.12250000
   0.77409786  0.54954987  0.28299475
   0.91525923  0.44450964  0.43082561
   0.77778000  0.55556000  0.04751000
   0.75066490  0.53909676  0.49624774
   0.64180533  0.33782716  0.38019051
   0.88889000  0.44444000  0.19748000
   0.00000000  0.66667000  0.12250000
   0.09895042  0.87953935  0.27562258
   0.22334007  0.74510195  0.42187691
   0.11111000  0.88889000  0.04751000
   0.13698049  0.86891002  0.50866141
   0.99943306  0.66281317  0.35479632
   0.22222000  0.77778000  0.19748000
   0.33333000  0.66667000  0.12250000
   0.46639632  0.90046399  0.27440050
   0.48578655  0.75940939  0.41993322
   0.44444000  0.88889000  0.04751000
   0.40862625  0.85837974  0.50355207
   0.33263832  0.66433843  0.32308059
   0.55556000  0.77778000  0.19748000
   0.66667000  0.66667000  0.12250000
   0.77929296  0.89432553  0.28013480
   0.92430432  0.79724276  0.43085380
   0.77778000  0.88889000  0.04751000
   0.68723221  0.86219307  0.48237571
   0.67285037  0.68541152  0.36650776
   0.88889000  0.77778000  0.19748000
   0.30474980  0.95256183  0.46576144
   0.59108779  0.96230345  0.45720881
   0.33108594  0.37247203  0.46826237
   0.61146661  0.39462952  0.46005817
   0.31743958  0.66461110  0.47132841
   0.59697211  0.68718049  0.45356257
Direct configuration=     9
   0.03247949  0.00669824  0.45918511
   0.22777752  0.11007653  0.30902308
   0.11111000  0.22222000  0.15999000
   0.54843834  0.10589483  0.31137996
   0.44444000  0.22222000  0.15999000
   0.89820559  0.11429143  0.31787344
   0.77778000  0.22222000  0.15999000
   0.02816791  0.34357435  0.46280045
   0.22739419  0.44536315  0.30803799
   0.11111000  0.55556000  0.15999000
   0.55138322  0.44473729  0.30983220
   0.44444000  0.55556000  0.15999000
   0.89631781  0.44622670  0.31553136
   0.77778000  0.55556000  0.15999000
   0.00582844  0.65526751  0.46397939
   0.22163995  0.77364980  0.30712283
   0.11111000  0.88889000  0.15999000
   0.55440712  0.77744468  0.30635645
   0.44444000  0.88889000  0.15999000
   0.89261545  0.77913819  0.31689460
   0.77778000  0.88889000  0.15999000
   0.00000000  0.00000000  0.12250000
   0.10862361  0.21924527  0.27558946
   0.23346565  0.06063810  0.42599585
   0.11111000  0.22222000  0.04751000
   0.15625888  0.24827333  0.50019054
   0.01080453  0.00418744  0.35243043
   0.22222000  0.11111000  0.19748000
   0.33333000  0.00000000  0.12250000
   0.45976516  0.23248649  0.27672566
   0.48162207  0.04137076  0.42712546
   0.44444000  0.22222000  0.04751000
   0.44689548  0.29438313  0.49867044
   0.33121942  0.99434910  0.32686644
   0.55556000  0.11111000  0.19748000
   0.66667000  0.00000000  0.12250000
   0.77422504  0.22410543  0.28646810
   0.93456087  0.12667470  0.43113282
   0.77778000  0.22222000  0.04751000
   0.69871962  0.09789851  0.50565009
   0.66651591  0.99884026  0.37172112
   0.88889000  0.11111000  0.19748000
   0.00000000  0.33333000  0.12250000
   0.09816530  0.54739825  0.27488580
   0.24330224  0.47704834  0.42944580
   0.11111000  0.55556000  0.04751000
   0.13081142  0.56442026  0.51120884
   0.01426506  0.33649523  0.35397820
   0.22222000  0.44444000  0.19748000
   0.33333000  0.33333000  0.12250000
   0.45760079  0.55694143  0.27469865
   0.51420161  0.48632634  0.43013979
   0.44444000  0.55556000  0.04751000
   0.44158821  0.60807248  0.51046085
   0.32947928  0.32747092  0.34947461
   0.55556000  0.44444000  0.19748000
   0.66667000  0.33333000  0.12250000