 143 143   0   0
  0.3048387E+02  0.1546430E-08  0.1546430E-08  0.2104820E-08  0.5000000E-15
  1.000000000000000E-004
  CAR 
 unknown system                          
      1.75201520    -38.47771337  301     -2.26183154      1.00000000
    -38.478  0.0000E+00  0.0000E+00  0.0000E+00  0.0000E+00
    -38.344  0.0000E+00  0.0000E+00  0.0000E+00  0.0000E+00
    -38.210  0.0000E+00  0.0000E+00  0.0000E+00  0.0000E+00
    -38.075  0.0000E+00  0.0000E+00  0.0000E+00  0.0000E+00
    -37.941  0.0000E+00  0.0000E+00  0.0000E+00  0.0000E+00
    -37.807  0.0000E+00  0.0000E+00  0.0000E+00  0.0000E+00
    -37.673  0.0000E+00  0.0000E+00  0.0000E+00  0.0000E+00
    -37.539  0.0000E+00  0.0000E+00  0.0000E+00  0.0000E+00
    -37.405  0.0000E+00  0.0000E+00  0.0000E+00  0.0000E+00
    -37.271  0.0000E+00  0.0000E+00  0.0000E+00  0.0000E+00
    -37.137  0.0000E+00  0.0000E+00  0.0000E+00  0.0000E+00
    -37.003  0.0000E+00  0.0000E+00  0.0000E+00  0.0000E+00
    -36.869  0.5931E-11  0.6733E-11  0.7954E-12  0.9028E-12
    -36.734  0.1894E-03  0.1999E-03  0.2540E-04  0.2681E-04
    -36.600  0.3707E-01  0.3713E-01  0.4996E-02  0.5005E-02
    -36.466  0.1005E+00  0.1004E+00  0.1847E-01  0.1846E-01
    -36.332  0.3134E+00  0.3423E+00  0.6050E-01  0.6436E-01
    -36.198  0.3292E+00  0.3009E+00  0.1046E+00  0.1047E+00
    -36.064  0.1507E-01  0.1463E-01  0.1067E+00  0.1067E+00
    -35.930  0.1167E-06  0.1218E-06  0.1067E+00  0.1067E+00
    -35.796  0.0000E+00  0.0000E+00  0.1067E+00  0.1067E+00
    -35.662  0.0000E+00  0.0000E+00  0.1067E+00  0.1067E+00
    -35.528  0.0000E+00  0.0000E+00  0.1067E+00  0.1067E+00
    -35.393  0.0000E+00  0.0000E+00  0.1067E+00  0.1067E+00
    -35.259  0.0000E+00  0.0000E+00  0.1067E+00  0.1067E+00
    -35.125  0.0000E+00  0.0000E+00  0.1067E+00  0.1067E+00
    -34.991  0.0000E+00  0.0000E+00  0.1067E+00  0.1067E+00
    -34.857  0.0000E+00  0.0000E+00  0.1067E+00  0.1067E+00
    -34.723  0.0000E+00  0.0000E+00  0.1067E+00  0.1067E+00
    -34.589  0.0000E+00  0.0000E+00  0.1067E+00  0.1067E+00
    -34.455  0.0000E+00  0.0000E+00  0.1067E+00  0.1067E+00
    -34.321  0.0000E+00  0.0000E+00  0.1067E+00  0.1067E+00
    -34.187  0.0000E+00  0.0000E+00  0.1067E+00  0.1067E+00
    -34.052  0.0000E+00  0.0000E+00  0.1067E+00  0.1067E+00
    -33.918  0.0000E+00  0.0000E+00  0.1067E+00  0.1067E+00
    -33.784  0.0000E+00  0.0000E+00  0.1067E+00  0.1067E+00
    -33.650  0.0000E+00  0.0000E+00  0.1067E+00  0.1067E+00
    -33.516  0.0000E+00  0.0000E+00  0.1067E+00  0.1067E+00
    -33.382  0.0000E+00  0.0000E+00  0.1067E+00  0.1067E+00
    -33.248  0.0000E+00  0.0000E+00  0.1067E+00  0.1067E+00
    -33.114  0.0000E+00  0.0000E+00  0.1067E+00  0.1067E+00
    -32.980  0.0000E+00  0.0000E+00  0.1067E+00  0.1067E+00
    -32.846  0.0000E+00  0.0000E+00  0.1067E+00  0.1067E+00
    -32.711  0.0000E+00  0.0000E+00  0.1067E+00  0.1067E+00
    -32.577  0.0000E+00  0.0000E+00  0.1067E+00  0.1067E+00
    -32.443  0.0000E+00  0.0000E+00  0.1067E+00  0.1067E+00
    -32.309  0.0000E+00  0.0000E+00  0.1067E+00  0.1067E+00
    -32.175  0.0000E+00  0.0000E+00  0.1067E+00  0.1067E+00
    -32.041  0.0000E+00  0.0000E+00  0.1067E+00  0.1067E+00
    -31.907  0.0000E+00  0.0000E+00  0.1067E+00  0.1067E+00
    -31.773  0.0000E+00  0.0000E+00  0.1067E+00  0.1067E+00
    -31.639  0.0000E+00  0.0000E+00  0.1067E+00  0.1067E+00
    -31.505  0.0000E+00  0.0000E+00  0.1067E+00  0.1067E+00
    -31.370  0.0000E+00  0.0000E+00  0.1067E+00  0.1067E+00
    -31.236  0.0000E+00  0.0000E+00  0.1067E+00  0.1067E+00
    -31.102  0.0000E+00  0.0000E+00  0.1067E+00  0.1067E+00
    -30.968  0.0000E+00  0.0000E+00  0.1067E+00  0.1067E+00
    -30.834  0.0000E+00  0.0000E+00  0.1067E+00  0.1067E+00
    -30.700  0.0000E+00  0.0000E+00  0.1067E+00  0.1067E+00
    -30.566  0.0000E+00  0.0000E+00  0.1067E+00  0.1067E+00
    -30.432  0.0000E+00  0.0000E+00  0.1067E+00  0.1067E+00
    -30.298  0.0000E+00  0.0000E+00  0.1067E+00  0.1067E+00
    -30.164  0.0000E+00  0.0000E+00  0.1067E+00  0.1067E+00
    -30.029  0.0000E+00  0.0000E+00  0.1067E+00  0.1067E+00
    -29.895  0.0000E+00  0.0000E+00  0.1067E+00  0.1067E+00
    -29.761  0.0000E+00  0.0000E+00  0.1067E+00  0.1067E+00
    -29.627  0.0000E+00  0.0000E+00  0.1067E+00  0.1067E+00
    -29.493  0.0000E+00  0.0000E+00  0.1067E+00  0.1067E+00
    -29.359  0.0000E+00  0.0000E+00  0.1067E+00  0.1067E+00
    -29.225  0.0000E+00  0.0000E+00  0.1067E+00  0.1067E+00
    -29.091  0.0000E+00  0.0000E+00  0.1067E+00  0.1067E+00
    -28.957  0.0000E+00  0.0000E+00  0.1067E+00  0.1067E+00
    -28.823  0.0000E+00  0.0000E+00  0.1067E+00  0.1067E+00
    -28.688  0.0000E+00  0.0000E+00  0.1067E+00  0.1067E+00
    -28.554  0.0000E+00  0.0000E+00  0.1067E+00  0.1067E+00
    -28.420  0.0000E+00  0.0000E+00  0.1067E+00  0.1067E+00
    -28.286  0.0000E+00  0.0000E+00  0.1067E+00  0.1067E+00
    -28.152  0.0000E+00  0.0000E+00  0.1067E+00  0.1067E+00
    -28.018  0.0000E+00  0.0000E+00  0.1067E+00  0.1067E+00
    -27.884  0.0000E+00  0.0000E+00  0.1067E+00  0.1067E+00
    -27.750  0.0000E+00  0.0000E+00  0.1067E+00  0.1067E+00
    -27.616  0.0000E+00  0.0000E+00  0.1067E+00  0.1067E+00
    -27.482  0.0000E+00  0.0000E+00  0.1067E+00  0.1067E+00
    -27.347  0.0000E+00  0.0000E+00  0.1067E+00  0.1067E+00
    -27.213  0.0000E+00  0.0000E+00  0.1067E+00  0.1067E+00
    -27.079  0.0000E+00  0.0000E+00  0.1067E+00  0.1067E+00
    -26.945  0.0000E+00  0.0000E+00  0.1067E+00  0.1067E+00
    -26.811  0.0000E+00  0.0000E+00  0.1067E+00  0.1067E+00
    -26.677  0.0000E+00  0.0000E+00  0.1067E+00  0.1067E+00
    -26.543  0.0000E+00  0.0000E+00  0.1067E+00  0.1067E+00
    -26.409  0.0000E+00  0.0000E+00  0.1067E+00  0.1067E+00
    -26.275  0.0000E+00  0.0000E+00  0.1067E+00  0.1067E+00
    -26.141  0.0000E+00  0.0000E+00  0.1067E+00  0.1067E+00
    -26.006  0.0000E+00  0.0000E+00  0.1067E+00  0.1067E+00
    -25.872  0.0000E+00  0.0000E+00  0.1067E+00  0.1067E+00
    -25.738  0.0000E+00  0.0000E+00  0.1067E+00  0.1067E+00
    -25.604  0.0000E+00  0.0000E+00  0.1067E+00  0.1067E+00
    -25.470  0.0000E+00  0.0000E+00  0.1067E+00  0.1067E+00
    -25.336  0.0000E+00  0.0000E+00  0.1067E+00  0.1067E+00
    -25.202  0.0000E+00  0.0000E+00  0.1067E+00  0.1067E+00
    -25.068  0.0000E+00  0.0000E+00  0.1067E+00  0.1067E+00
    -24.934  0.2387E-08  0.2603E-08  0.1067E+00  0.1067E+00
    -24.800  0.1956E-02  0.2015E-02  0.1069E+00  0.1069E+00
    -24.666  0.2269E-01  0.2264E-01  0.1100E+00  0.1100E+00
    -24.531  0.2158E-03  0.2065E-03  0.1100E+00  0.1100E+00
    -24.397  0.8391E-11  0.7576E-11  0.1100E+00  0.1100E+00
    -24.263  0.0000E+00  0.0000E+00  0.1100E+00  0.1100E+00
    -24.129  0.0000E+00  0.0000E+00  0.1100E+00  0.1100E+00
    -23.995  0.0000E+00  0.0000E+00  0.1100E+00  0.1100E+00
    -23.861  0.0000E+00  0.0000E+00  0.1100E+00  0.1100E+00
    -23.727  0.0000E+00  0.0000E+00  0.1100E+00  0.1100E+00
    -23.593  0.0000E+00  0.0000E+00  0.1100E+00  0.1100E+00
    -23.459  0.0000E+00  0.0000E+00  0.1100E+00  0.1100E+00
    -23.325  0.0000E+00  0.0000E+00  0.1100E+00  0.1100E+00
    -23.190  0.0000E+00  0.0000E+00  0.1100E+00  0.1100E+00
    -23.056  0.0000E+00  0.0000E+00  0.1100E+00  0.1100E+00
    -22.922  0.0000E+00  0.0000E+00  0.1100E+00  0.1100E+00
    -22.788  0.0000E+00  0.0000E+00  0.1100E+00  0.1100E+00
    -22.654  0.0000E+00  0.0000E+00  0.1100E+00  0.1100E+00
    -22.520  0.0000E+00  0.0000E+00  0.1100E+00  0.1100E+00
    -22.386  0.0000E+00  0.0000E+00  0.1100E+00  0.1100E+00
    -22.252  0.0000E+00  0.0000E+00  0.1100E+00  0.1100E+00
    -22.118  0.0000E+00  0.0000E+00  0.1100E+00  0.1100E+00
    -21.984  0.9820E-14  0.4140E-16  0.1100E+00  0.1100E+00
    -21.849  0.9625E-05  0.5537E-06  0.1100E+00  0.1100E+00
    -21.715  0.2476E-01  0.1192E-01  0.1133E+00  0.1116E+00
    -21.581  0.5564E-01  0.5780E-01  0.1208E+00  0.1193E+00
    -21.447  0.1125E+00  0.8893E-01  0.1359E+00  0.1313E+00
    -21.313  0.1561E+00  0.1570E+00  0.1568E+00  0.1523E+00
    -21.179  0.2154E+00  0.1795E+00  0.1857E+00  0.1764E+00
    -21.045  0.1761E+00  0.1954E+00  0.2093E+00  0.2026E+00
    -20.911  0.7865E-01  0.7768E-01  0.2199E+00  0.2130E+00
    -20.777  0.2200E+00  0.1211E+00  0.2494E+00  0.2292E+00
    -20.643  0.2308E+00  0.2100E+00  0.2803E+00  0.2574E+00
    -20.508  0.1722E+00  0.1215E+00  0.3034E+00  0.2737E+00
    -20.374  0.1234E+00  0.1329E+00  0.3199E+00  0.2915E+00
    -20.240  0.1292E+00  0.1347E+00  0.3373E+00  0.3096E+00
    -20.106  0.1542E+00  0.1693E+00  0.3580E+00  0.3323E+00
    -19.972  0.1244E+00  0.1620E+00  0.3746E+00  0.3540E+00
    -19.838  0.7755E-01  0.9390E-01  0.3850E+00  0.3666E+00
    -19.704  0.3805E-01  0.5191E-01  0.3901E+00  0.3736E+00
    -19.570  0.4836E-01  0.5338E-01  0.3966E+00  0.3807E+00
    -19.436  0.7875E-01  0.6821E-01  0.4072E+00  0.3899E+00
    -19.302  0.3467E-01  0.7654E-01  0.4118E+00  0.4001E+00
    -19.167  0.5564E-01  0.9479E-01  0.4193E+00  0.4128E+00
    -19.033  0.5010E-01  0.6644E-01  0.4260E+00  0.4218E+00
    -18.899  0.1860E+00  0.1504E+00  0.4510E+00  0.4419E+00
    -18.765  0.2836E+00  0.2877E+00  0.4890E+00  0.4805E+00
    -18.631  0.2472E+00  0.2535E+00  0.5222E+00  0.5145E+00
    -18.497  0.1749E+00  0.1376E+00  0.5456E+00  0.5329E+00
    -18.363  0.7503E-01  0.5857E-01  0.5557E+00  0.5408E+00
    -18.229  0.9638E-01  0.9307E-01  0.5686E+00  0.5533E+00
    -18.095  0.1010E+00  0.6406E-01  0.5821E+00  0.5619E+00
    -17.961  0.4972E-01  0.6053E-01  0.5888E+00  0.5700E+00
    -17.826  0.1912E-01  0.2881E-01  0.5914E+00  0.5738E+00
    -17.692  0.3892E-01  0.2229E-01  0.5966E+00  0.5768E+00
    -17.558  0.3292E-01  0.5490E-01  0.6010E+00  0.5842E+00
    -17.424  0.7465E-01  0.6924E-01  0.6110E+00  0.5935E+00
    -17.290  0.1109E+00  0.1019E+00  0.6259E+00  0.6071E+00
    -17.156  0.9414E-01  0.1460E+00  0.6385E+00  0.6267E+00
    -17.022  0.7742E-01  0.1036E+00  0.6489E+00  0.6406E+00
    -16.888  0.9681E-01  0.7290E-01  0.6619E+00  0.6504E+00
    -16.754  0.9815E-01  0.1125E+00  0.6750E+00  0.6655E+00
    -16.620  0.1152E+00  0.1398E+00  0.6905E+00  0.6842E+00
    -16.485  0.4602E-01  0.7519E-01  0.6967E+00  0.6943E+00
    -16.351  0.7188E-01  0.2274E-01  0.7063E+00  0.6973E+00
    -16.217  0.1939E+00  0.1570E+00  0.7323E+00  0.7184E+00
    -16.083  0.8665E-01  0.1713E+00  0.7439E+00  0.7414E+00
    -15.949  0.8342E-01  0.9317E-01  0.7551E+00  0.7539E+00
    -15.815  0.5960E-01  0.4866E-01  0.7631E+00  0.7604E+00
    -15.681  0.2910E-01  0.4035E-01  0.7670E+00  0.7658E+00
    -15.547  0.2588E-01  0.2946E-01  0.7705E+00  0.7697E+00
    -15.413  0.2264E-01  0.2693E-01  0.7735E+00  0.7734E+00
    -15.279  0.2326E-01  0.2392E-01  0.7766E+00  0.7766E+00
    -15.144  0.3716E-03  0.7868E-03  0.7767E+00  0.7767E+00
    -15.010  0.3052E-10  0.1995E-09  0.7767E+00  0.7767E+00
    -14.876  0.0000E+00  0.0000E+00  0.7767E+00  0.7767E+00
    -14.742  0.0000E+00  0.0000E+00  0.7767E+00  0.7767E+00
    -14.608  0.0000E+00  0.0000E+00  0.7767E+00  0.7767E+00
    -14.474  0.0000E+00  0.0000E+00  0.7767E+00  0.7767E+00
    -14.340  0.0000E+00  0.0000E+00  0.7767E+00  0.7767E+00
    -14.206  0.0000E+00  0.0000E+00  0.7767E+00  0.7767E+00
    -14.072  0.0000E+00  0.0000E+00  0.7767E+00  0.7767E+00
    -13.938  0.0000E+00  0.0000E+00  0.7767E+00  0.7767E+00
    -13.803  0.0000E+00  0.0000E+00  0.7767E+00  0.7767E+00
    -13.669  0.0000E+00  0.0000E+00  0.7767E+00  0.7767E+00
    -13.535  0.0000E+00  0.0000E+00  0.7767E+00  0.7767E+00
    -13.401  0.0000E+00  0.0000E+00  0.7767E+00  0.7767E+00
    -13.267  0.0000E+00  0.0000E+00  0.7767E+00  0.7767E+00
    -13.133  0.0000E+00  0.0000E+00  0.7767E+00  0.7767E+00
    -12.999  0.0000E+00  0.0000E+00  0.7767E+00  0.7767E+00
    -12.865  0.0000E+00  0.0000E+00  0.7767E+00  0.7767E+00
    -12.731  0.0000E+00  0.0000E+00  0.7767E+00  0.7767E+00
    -12.597  0.0000E+00  0.0000E+00  0.7767E+00  0.7767E+00
    -12.462  0.0000E+00  0.0000E+00  0.7767E+00  0.7767E+00
    -12.328  0.0000E+00  0.0000E+00  0.7767E+00  0.7767E+00
    -12.194  0.0000E+00  0.0000E+00  0.7767E+00  0.7767E+00
    -12.060  0.0000E+00  0.0000E+00  0.7767E+00  0.7767E+00
    -11.926  0.0000E+00  0.0000E+00  0.7767E+00  0.7767E+00
    -11.792  0.0000E+00  0.0000E+00  0.7767E+00  0.7767E+00
    -11.658  0.0000E+00  0.0000E+00  0.7767E+00  0.7767E+00
    -11.524  0.0000E+00  0.0000E+00  0.7767E+00  0.7767E+00
    -11.390  0.0000E+00  0.0000E+00  0.7767E+00  0.7767E+00
    -11.256  0.0000E+00  0.0000E+00  0.7767E+00  0.7767E+00
    -11.121  0.0000E+00  0.0000E+00  0.7767E+00  0.7767E+00
    -10.987  0.0000E+00  0.0000E+00  0.7767E+00  0.7767E+00
    -10.853  0.0000E+00  0.0000E+00  0.7767E+00  0.7767E+00
    -10.719  0.0000E+00  0.0000E+00  0.7767E+00  0.7767E+00
    -10.585  0.0000E+00  0.0000E+00  0.7767E+00  0.7767E+00
    -10.451  0.0000E+00  0.0000E+00  0.7767E+00  0.7767E+00
    -10.317  0.0000E+00  0.0000E+00  0.7767E+00  0.7767E+00
    -10.183  0.4165E-09  0.0000E+00  0.7767E+00  0.7767E+00
    -10.049  0.1061E-02  0.9432E-12  0.7768E+00  0.7767E+00
     -9.915  0.4168E-01  0.8238E-04  0.7824E+00  0.7767E+00
     -9.781  0.7069E-02  0.2845E-01  0.7833E+00  0.7805E+00
     -9.646  0.2276E-01  0.2117E-01  0.7864E+00  0.7833E+00
     -9.512  0.3324E-01  0.1495E-02  0.7909E+00  0.7835E+00
     -9.378  0.5671E-01  0.4611E-01  0.7985E+00  0.7897E+00
     -9.244  0.1135E+00  0.9476E-01  0.8137E+00  0.8024E+00
     -9.110  0.1371E+00  0.1070E+00  0.8321E+00  0.8168E+00
     -8.976  0.7060E-01  0.1167E+00  0.8415E+00  0.8324E+00
     -8.842  0.1267E+00  0.8457E-01  0.8585E+00  0.8438E+00
     -8.708  0.3776E-01  0.6831E-01  0.8636E+00  0.8529E+00
     -8.574  0.4519E-01  0.2872E-01  0.8696E+00  0.8568E+00
     -8.440  0.3876E-02  0.5553E-01  0.8702E+00  0.8642E+00
     -8.305  0.6142E-01  0.3956E-01  0.8784E+00  0.8695E+00
     -8.171  0.1192E-01  0.2965E-01  0.8800E+00  0.8735E+00
     -8.037  0.2468E-06  0.2356E-01  0.8800E+00  0.8767E+00
     -7.903  0.2299E-12  0.9803E-02  0.8800E+00  0.8780E+00
     -7.769  0.4288E-04  0.1508E-01  0.8800E+00  0.8800E+00
     -7.635  0.2015E-01  0.6389E-02  0.8827E+00  0.8809E+00
     -7.501  0.4830E-01  0.3329E-01  0.8892E+00  0.8853E+00
     -7.367  0.3094E-01  0.5687E-01  0.8933E+00  0.8929E+00
     -7.233  0.2625E-01  0.2452E-01  0.8969E+00  0.8962E+00
     -7.099  0.2361E-01  0.2731E-01  0.9000E+00  0.8999E+00
     -6.964  0.2234E-01  0.1195E-01  0.9030E+00  0.9015E+00
     -6.830  0.1368E-01  0.1370E-01  0.9049E+00  0.9033E+00
     -6.696  0.1354E-01  0.1852E-01  0.9067E+00  0.9058E+00
     -6.562  0.3956E-03  0.6316E-02  0.9067E+00  0.9067E+00
     -6.428  0.5785E-01  0.2673E-02  0.9145E+00  0.9070E+00
     -6.294  0.6614E-01  0.8883E-01  0.9233E+00  0.9189E+00
     -6.160  0.6277E-01  0.4228E-01  0.9318E+00  0.9246E+00
     -6.026  0.3210E+00  0.1572E+00  0.9748E+00  0.9457E+00
     -5.892  0.2899E+00  0.2284E+00  0.1014E+01  0.9763E+00
     -5.758  0.2016E+00  0.2185E+00  0.1041E+01  0.1006E+01
     -5.623  0.2297E+00  0.2169E+00  0.1072E+01  0.1035E+01
     -5.489  0.2857E+00  0.2535E+00  0.1110E+01  0.1069E+01
     -5.355  0.2718E+00  0.2767E+00  0.1146E+01  0.1106E+01
     -5.221  0.2956E+00  0.2678E+00  0.1186E+01  0.1142E+01
     -5.087  0.2695E+00  0.2527E+00  0.1222E+01  0.1176E+01
     -4.953  0.1698E+00  0.1678E+00  0.1245E+01  0.1198E+01
     -4.819  0.1905E+00  0.1611E+00  0.1270E+01  0.1220E+01
     -4.685  0.1945E+00  0.1821E+00  0.1296E+01  0.1244E+01
     -4.551  0.2265E+00  0.2064E+00  0.1327E+01  0.1272E+01
     -4.417  0.2101E+00  0.1719E+00  0.1355E+01  0.1295E+01
     -4.282  0.2203E+00  0.2092E+00  0.1385E+01  0.1323E+01
     -4.148  0.2678E+00  0.2781E+00  0.1420E+01  0.1360E+01
     -4.014  0.2753E+00  0.2382E+00  0.1457E+01  0.1392E+01
     -3.880  0.2914E+00  0.2966E+00  0.1496E+01  0.1432E+01
     -3.746  0.3876E+00  0.3512E+00  0.1548E+01  0.1479E+01
     -3.612  0.3422E+00  0.3984E+00  0.1594E+01  0.1532E+01
     -3.478  0.3202E+00  0.3234E+00  0.1637E+01  0.1576E+01
     -3.344  0.3147E+00  0.3276E+00  0.1679E+01  0.1620E+01
     -3.210  0.2973E+00  0.3086E+00  0.1719E+01  0.1661E+01
     -3.076  0.2173E+00  0.2710E+00  0.1748E+01  0.1697E+01
     -2.941  0.2086E+00  0.2245E+00  0.1776E+01  0.1728E+01
     -2.807  0.8085E-01  0.1388E+00  0.1787E+01  0.1746E+01
     -2.673  0.4494E-01  0.2853E-01  0.1793E+01  0.1750E+01
     -2.539  0.2659E-01  0.3626E-02  0.1797E+01  0.1750E+01
     -2.405  0.2336E-01  0.2117E-01  0.1800E+01  0.1753E+01
     -2.271  0.3435E-01  0.5190E-02  0.1805E+01  0.1754E+01
     -2.137  0.1405E+00  0.1989E+00  0.1823E+01  0.1781E+01
     -2.003  0.1386E+00  0.2681E+00  0.1842E+01  0.1817E+01
     -1.869  0.1045E-01  0.1434E+00  0.1843E+01  0.1836E+01
     -1.735  0.4582E-01  0.2138E-01  0.1850E+01  0.1839E+01
     -1.600  0.2879E-01  0.5493E-01  0.1853E+01  0.1846E+01
     -1.466  0.6896E-01  0.5329E-01  0.1863E+01  0.1853E+01
     -1.332  0.4762E-02  0.6564E-01  0.1863E+01  0.1862E+01
     -1.198  0.1536E-01  0.9563E-02  0.1865E+01  0.1863E+01
     -1.064  0.3369E-01  0.2820E-01  0.1870E+01  0.1867E+01
     -0.930  0.1402E-01  0.2142E-01  0.1872E+01  0.1870E+01
     -0.796  0.5928E-01  0.1352E-01  0.1880E+01  0.1872E+01
     -0.662  0.2797E-01  0.7990E-01  0.1883E+01  0.1883E+01
     -0.528  0.2334E+00  0.2424E+00  0.1915E+01  0.1915E+01
     -0.394  0.7113E+00  0.7363E+00  0.2010E+01  0.2014E+01
     -0.259  0.1123E+01  0.1125E+01  0.2161E+01  0.2165E+01
     -0.125  0.1260E+01  0.1260E+01  0.2330E+01  0.2334E+01
      0.009  0.5226E+00  0.4952E+00  0.2400E+01  0.2400E+01
      0.143  0.9794E-03  0.6188E-03  0.2400E+01  0.2400E+01
      0.277  0.1759E-10  0.5413E-11  0.2400E+01  0.2400E+01
      0.411  0.0000E+00  0.0000E+00  0.2400E+01  0.2400E+01
      0.545  0.0000E+00  0.0000E+00  0.2400E+01  0.2400E+01
      0.679  0.0000E+00  0.0000E+00  0.2400E+01  0.2400E+01
      0.813  0.0000E+00  0.0000E+00  0.2400E+01  0.2400E+01
      0.947  0.0000E+00  0.0000E+00  0.2400E+01  0.2400E+01
      1.082  0.0000E+00  0.0000E+00  0.2400E+01  0.2400E+01
      1.216  0.0000E+00  0.0000E+00  0.2400E+01  0.2400E+01
      1.350  0.0000E+00  0.0000E+00  0.2400E+01  0.2400E+01
      1.484  0.0000E+00  0.0000E+00  0.2400E+01  0.2400E+01
      1.618  0.0000E+00  0.0000E+00  0.2400E+01  0.2400E+01
      1.752  0.0000E+00  0.0000E+00  0.2400E+01  0.2400E+01
