  143  143  300    2
  0.3048387E+02  0.1546430E-08  0.1546430E-08  0.2104820E-08  0.5000000E-15
  1.000000000000000E-004
  CAR 
 unknown system                          
   1068      1    720
 
  0.0000000E+00  0.0000000E+00  0.0000000E+00  0.1000000E+01
      1        -36.648386      -36.649089   1.000000   1.000000
      2        -36.606277      -36.606361   1.000000   1.000000
      3        -36.524913      -36.524162   1.000000   1.000000
      4        -36.499439      -36.497028   1.000000   1.000000
      5        -36.480873      -36.481060   1.000000   1.000000
      6        -36.456887      -36.456331   1.000000   1.000000
      7        -36.448482      -36.453225   1.000000   1.000000
      8        -36.431252      -36.430847   1.000000   1.000000
      9        -36.420827      -36.420543   1.000000   1.000000
     10        -36.414812      -36.405346   1.000000   1.000000
     11        -36.402139      -36.400576   1.000000   1.000000
     12        -36.394495      -36.395667   1.000000   1.000000
     13        -36.373932      -36.387889   1.000000   1.000000
     14        -36.365363      -36.365111   1.000000   1.000000
     15        -36.358391      -36.360731   1.000000   1.000000
     16        -36.352668      -36.356809   1.000000   1.000000
     17        -36.337576      -36.348997   1.000000   1.000000
     18        -36.331649      -36.342938   1.000000   1.000000
     19        -36.329451      -36.341255   1.000000   1.000000
     20        -36.324237      -36.336817   1.000000   1.000000
     21        -36.313753      -36.324298   1.000000   1.000000
     22        -36.307425      -36.318570   1.000000   1.000000
     23        -36.301503      -36.308732   1.000000   1.000000
     24        -36.289727      -36.297648   1.000000   1.000000
     25        -36.283737      -36.295151   1.000000   1.000000
     26        -36.279235      -36.289011   1.000000   1.000000
     27        -36.267366      -36.285380   1.000000   1.000000
     28        -36.263666      -36.276284   1.000000   1.000000
     29        -36.257042      -36.262908   1.000000   1.000000
     30        -36.249568      -36.244320   1.000000   1.000000
     31        -36.233915      -36.228541   1.000000   1.000000
     32        -36.222150      -36.223692   1.000000   1.000000
     33        -24.749614      -24.750184   1.000000   1.000000
     34        -21.730274      -21.705027   1.000000   1.000000
     35        -21.699766      -21.668701   1.000000   1.000000
     36        -21.617679      -21.601893   1.000000   1.000000
     37        -21.563982      -21.533051   1.000000   1.000000
     38        -21.525057      -21.487408   1.000000   1.000000
     39        -21.504195      -21.467111   1.000000   1.000000
     40        -21.484431      -21.454896   1.000000   1.000000
     41        -21.439913      -21.405587   1.000000   1.000000
     42        -21.431282      -21.393511   1.000000   1.000000
     43        -21.409613      -21.372947   1.000000   1.000000
     44        -21.389212      -21.365302   1.000000   1.000000
     45        -21.381457      -21.351352   1.000000   1.000000
     46        -21.348062      -21.318579   1.000000   1.000000
     47        -21.314664      -21.289983   1.000000   1.000000
     48        -21.303622      -21.262526   1.000000   1.000000
     49        -21.286124      -21.257984   1.000000   1.000000
     50        -21.257830      -21.226682   1.000000   1.000000
     51        -21.246938      -21.214134   1.000000   1.000000
     52        -21.235453      -21.197769   1.000000   1.000000
     53        -21.221584      -21.189382   1.000000   1.000000
     54        -21.198855      -21.170084   1.000000   1.000000
     55        -21.195105      -21.145448   1.000000   1.000000
     56        -21.186032      -21.143966   1.000000   1.000000
     57        -21.173483      -21.134143   1.000000   1.000000
     58        -21.158114      -21.107622   1.000000   1.000000
     59        -21.138518      -21.094467   1.000000   1.000000
     60        -21.124982      -21.066155   1.000000   1.000000
     61        -21.117058      -21.049278   1.000000   1.000000
     62        -21.073091      -21.036690   1.000000   1.000000
     63        -21.052933      -21.017017   1.000000   1.000000
     64        -21.040418      -20.947742   1.000000   1.000000
     65        -20.939595      -20.850828   1.000000   1.000000
     66        -20.919328      -20.812139   1.000000   1.000000
     67        -20.893289      -20.805579   1.000000   1.000000
     68        -20.869845      -20.796433   1.000000   1.000000
     69        -20.865668      -20.780832   1.000000   1.000000
     70        -20.838724      -20.767558   1.000000   1.000000
     71        -20.825512      -20.753122   1.000000   1.000000
     72        -20.811625      -20.734341   1.000000   1.000000
     73        -20.803018      -20.731771   1.000000   1.000000
     74        -20.788687      -20.698778   1.000000   1.000000
     75        -20.775611      -20.690642   1.000000   1.000000
     76        -20.766050      -20.681034   1.000000   1.000000
     77        -20.761497      -20.653242   1.000000   1.000000
     78        -20.747874      -20.632619   1.000000   1.000000
     79        -20.742261      -20.618127   1.000000   1.000000
     80        -20.727522      -20.613861   1.000000   1.000000
     81        -20.701896      -20.583926   1.000000   1.000000
     82        -20.694540      -20.525417   1.000000   1.000000
     83        -20.689098      -20.488535   1.000000   1.000000
     84        -20.671321      -20.468124   1.000000   1.000000
     85        -20.623514      -20.429267   1.000000   1.000000
     86        -20.605360      -20.424198   1.000000   1.000000
     87        -20.587493      -20.418502   1.000000   1.000000
     88        -20.564812      -20.380712   1.000000   1.000000
     89        -20.556308      -20.321993   1.000000   1.000000
     90        -20.534765      -20.317291   1.000000   1.000000
     91        -20.528209      -20.289275   1.000000   1.000000
     92        -20.512063      -20.262747   1.000000   1.000000
     93        -20.468304      -20.244053   1.000000   1.000000
     94        -20.439925      -20.229952   1.000000   1.000000
     95        -20.398867      -20.205408   1.000000   1.000000
     96        -20.385697      -20.197566   1.000000   1.000000
     97        -20.369690      -20.175684   1.000000   1.000000
     98        -20.341936      -20.144876   1.000000   1.000000
     99        -20.289466      -20.129124   1.000000   1.000000
    100        -20.276172      -20.111795   1.000000   1.000000
    101        -20.240930      -20.088277   1.000000   1.000000
    102        -20.234917      -20.069716   1.000000   1.000000
    103        -20.224345      -20.046989   1.000000   1.000000
    104        -20.200130      -20.040691   1.000000   1.000000
    105        -20.164634      -20.020651   1.000000   1.000000
    106        -20.140729      -20.000644   1.000000   1.000000
    107        -20.121007      -19.954809   1.000000   1.000000
    108        -20.112310      -19.935739   1.000000   1.000000
    109        -20.088965      -19.917263   1.000000   1.000000
    110        -20.040466      -19.896257   1.000000   1.000000
    111        -20.036525      -19.775795   1.000000   1.000000
    112        -20.004800      -19.747529   1.000000   1.000000
    113        -19.964794      -19.659864   1.000000   1.000000
    114        -19.941844      -19.656481   1.000000   1.000000
    115        -19.895271      -19.541447   1.000000   1.000000
    116        -19.843585      -19.492389   1.000000   1.000000
    117        -19.740011      -19.465120   1.000000   1.000000
    118        -19.673560      -19.407352   1.000000   1.000000
    119        -19.575038      -19.344636   1.000000   1.000000
    120        -19.545626      -19.312785   1.000000   1.000000
    121        -19.537618      -19.277019   1.000000   1.000000
    122        -19.461969      -19.268897   1.000000   1.000000
    123        -19.425542      -19.257126   1.000000   1.000000
    124        -19.294704      -19.181779   1.000000   1.000000
    125        -19.261151      -19.137618   1.000000   1.000000
    126        -19.195791      -19.073319   1.000000   1.000000
    127        -19.076054      -19.028394   1.000000   1.000000
    128        -19.028923      -18.992612   1.000000   1.000000
    129        -19.017026      -18.981284   1.000000   1.000000
    130        -18.987303      -18.955145   1.000000   1.000000
    131        -18.968809      -18.934746   1.000000   1.000000
    132        -18.955139      -18.905360   1.000000   1.000000
    133        -18.923336      -18.891256   1.000000   1.000000
    134        -18.919382      -18.879700   1.000000   1.000000
    135        -18.913256      -18.877100   1.000000   1.000000
    136        -18.895417      -18.857327   1.000000   1.000000
    137        -18.882565      -18.847333   1.000000   1.000000
    138        -18.873364      -18.836910   1.000000   1.000000
    139        -18.861740      -18.825538   1.000000   1.000000
    140        -18.839833      -18.816327   1.000000   1.000000
    141        -18.830709      -18.814053   1.000000   1.000000
    142        -18.820269      -18.803404   1.000000   1.000000
    143        -18.815918      -18.791548   1.000000   1.000000
    144        -18.807377      -18.779197   1.000000   1.000000
    145        -18.802258      -18.774951   1.000000   1.000000
    146        -18.794250      -18.737783   1.000000   1.000000
    147        -18.780811      -18.724591   1.000000   1.000000
    148        -18.750670      -18.707808   1.000000   1.000000
    149        -18.725549      -18.700568   1.000000   1.000000
    150        -18.717210      -18.698089   1.000000   1.000000
    151        -18.708033      -18.692564   1.000000   1.000000
    152        -18.705047      -18.675247   1.000000   1.000000
    153        -18.694255      -18.662445   1.000000   1.000000
    154        -18.669039      -18.653888   1.000000   1.000000
    155        -18.663333      -18.645231   1.000000   1.000000
    156        -18.654086      -18.600498   1.000000   1.000000
    157        -18.635851      -18.578399   1.000000   1.000000
    158        -18.621535      -18.573740   1.000000   1.000000
    159        -18.598279      -18.568476   1.000000   1.000000
    160        -18.584647      -18.530651   1.000000   1.000000
    161        -18.572114      -18.447911   1.000000   1.000000
    162        -18.562552      -18.420200   1.000000   1.000000
    163        -18.552673      -18.332421   1.000000   1.000000
    164        -18.509654      -18.313324   1.000000   1.000000
    165        -18.454011      -18.287805   1.000000   1.000000
    166        -18.436696      -18.265406   1.000000   1.000000
    167        -18.363223      -18.197147   1.000000   1.000000
    168        -18.330350      -18.112094   1.000000   1.000000
    169        -18.299534      -18.097331   1.000000   1.000000
    170        -18.268963      -18.072501   1.000000   1.000000
    171        -18.230044      -18.043246   1.000000   1.000000
    172        -18.193241      -17.855699   1.000000   1.000000
    173        -18.166867      -17.813213   1.000000   1.000000
    174        -18.154587      -17.631396   1.000000   1.000000
    175        -18.106827      -17.600584   1.000000   1.000000
    176        -18.043450      -17.532371   1.000000   1.000000
    177        -17.974199      -17.522736   1.000000   1.000000
    178        -17.815340      -17.444064   1.000000   1.000000
    179        -17.761566      -17.402249   1.000000   1.000000
    180        -17.584125      -17.368491   1.000000   1.000000
    181        -17.556992      -17.332313   1.000000   1.000000
    182        -17.498790      -17.317371   1.000000   1.000000
    183        -17.433188      -17.273408   1.000000   1.000000
    184        -17.432353      -17.252493   1.000000   1.000000
    185        -17.380035      -17.213514   1.000000   1.000000
    186        -17.350709      -17.205725   1.000000   1.000000
    187        -17.328923      -17.191631   1.000000   1.000000
    188        -17.292812      -17.172933   1.000000   1.000000
    189        -17.274597      -17.142752   1.000000   1.000000
    190        -17.241183      -17.126573   1.000000   1.000000
    191        -17.194404      -17.101312   1.000000   1.000000
    192        -17.167895      -17.037114   1.000000   1.000000
    193        -17.096806      -17.008444   1.000000   1.000000
    194        -17.082972      -16.988771   1.000000   1.000000
    195        -17.014371      -16.918641   1.000000   1.000000
    196        -16.992693      -16.864296   1.000000   1.000000
    197        -16.976489      -16.828043   1.000000   1.000000
    198        -16.929769      -16.802371   1.000000   1.000000
    199        -16.899726      -16.774109   1.000000   1.000000
    200        -16.829251      -16.769446   1.000000   1.000000
    201        -16.793512      -16.729834   1.000000   1.000000
    202        -16.773858      -16.696834   1.000000   1.000000
    203        -16.767962      -16.691565   1.000000   1.000000
    204        -16.722504      -16.664590   1.000000   1.000000
    205        -16.704953      -16.631580   1.000000   1.000000
    206        -16.669403      -16.629874   1.000000   1.000000
    207        -16.641457      -16.574437   1.000000   1.000000
    208        -16.617229      -16.561448   1.000000   1.000000
    209        -16.551767      -16.467715   1.000000   1.000000
    210        -16.416187      -16.302570   1.000000   1.000000
    211        -16.376685      -16.299465   1.000000   1.000000
    212        -16.364777      -16.289944   1.000000   1.000000
    213        -16.326914      -16.257232   1.000000   1.000000
    214        -16.312104      -16.243723   1.000000   1.000000
    215        -16.301038      -16.225630   1.000000   1.000000
    216        -16.284802      -16.215502   1.000000   1.000000
    217        -16.276687      -16.208719   1.000000   1.000000
    218        -16.263404      -16.189086   1.000000   1.000000
    219        -16.240014      -16.181206   1.000000   1.000000
    220        -16.230248      -16.154385   1.000000   1.000000
    221        -16.208279      -16.147437   1.000000   1.000000
    222        -16.168518      -16.124458   1.000000   1.000000
    223        -16.123090      -16.077641   1.000000   1.000000
    224        -16.062926      -16.044831   1.000000   1.000000
    225        -16.013651      -16.004533   1.000000   1.000000
    226        -15.981445      -15.968207   1.000000   1.000000
    227        -15.960166      -15.949245   1.000000   1.000000
    228        -15.907027      -15.867381   1.000000   1.000000
    229        -15.851311      -15.782932   1.000000   1.000000
    230        -15.766058      -15.703038   1.000000   1.000000
    231        -15.636597      -15.588745   1.000000   1.000000
    232        -15.509221      -15.484935   1.000000   1.000000
    233        -15.355343      -15.344225   1.000000   1.000000
    234         -9.987570       -9.818594   1.000000   1.000000
    235         -9.937262       -9.760778   1.000000   1.000000
    236         -9.686842       -9.456693   1.000000   1.000000
    237         -9.586860       -9.408710   1.000000   1.000000
    238         -9.480108       -9.328736   1.000000   1.000000
    239         -9.465615       -9.315801   1.000000   1.000000
    240         -9.376568       -9.274089   1.000000   1.000000
    241         -9.313040       -9.263962   1.000000   1.000000
    242         -9.310813       -9.212603   1.000000   1.000000
    243         -9.283802       -9.185374   1.000000   1.000000
    244         -9.269723       -9.156955   1.000000   1.000000
    245         -9.233050       -9.106547   1.000000   1.000000
    246         -9.201776       -9.100077   1.000000   1.000000
    247         -9.168986       -9.077685   1.000000   1.000000
    248         -9.161848       -9.065893   1.000000   1.000000
    249         -9.147312       -9.013177   1.000000   1.000000
    250         -9.132840       -8.994116   1.000000   1.000000
    251         -9.068924       -8.941742   1.000000   1.000000
    252         -9.041257       -8.899056   1.000000   1.000000
    253         -8.958218       -8.872805   1.000000   1.000000
    254         -8.935435       -8.822965   1.000000   1.000000
    255         -8.917217       -8.790209   1.000000   1.000000
    256         -8.891025       -8.750406   1.000000   1.000000
    257         -8.881061       -8.595775   1.000000   1.000000
    258         -8.870425       -8.548053   1.000000   1.000000
    259         -8.739417       -8.519500   1.000000   1.000000
    260         -8.684407       -8.418511   1.000000   1.000000
    261         -8.617825       -8.343062   1.000000   1.000000
    262         -8.379988       -8.205318   1.000000   1.000000
    263         -8.342053       -8.143885   1.000000   1.000000
    264         -8.322728       -7.893530   1.000000   1.000000
    265         -7.665623       -7.611819   1.000000   1.000000
    266         -7.542984       -7.499651   1.000000   1.000000
    267         -7.512867       -7.456524   1.000000   1.000000
    268         -7.475711       -7.409507   1.000000   1.000000
    269         -7.259213       -7.268257   1.000000   1.000000
    270         -7.212233       -7.164478   1.000000   1.000000
    271         -7.010696       -6.959942   1.000000   1.000000
    272         -6.826338       -6.719623   1.000000   1.000000
    273         -6.485836       -6.379461   1.000000   1.000000
    274         -6.440740       -6.355632   1.000000   1.000000
    275         -6.417777       -6.328185   1.000000   1.000000
    276         -6.408525       -6.294638   1.000000   1.000000
    277         -6.377649       -6.283846   1.000000   1.000000
    278         -6.215604       -6.144191   1.000000   1.000000
    279         -6.165530       -6.093377   1.000000   1.000000
    280         -6.139319       -6.078427   1.000000   1.000000
    281         -6.138100       -6.075443   1.000000   1.000000
    282         -6.128919       -6.063477   1.000000   1.000000
    283         -6.120056       -6.047549   1.000000   1.000000
    284         -6.106451       -6.031314   1.000000   1.000000
    285         -6.103852       -6.010418   1.000000   1.000000
    286         -6.084791       -6.005993   1.000000   1.000000
    287         -6.069701       -5.971572   1.000000   1.000000
    288         -6.061038       -5.958649   1.000000   1.000000
    289         -6.057354       -5.941860   1.000000   1.000000
    290         -6.050375       -5.934998   1.000000   1.000000
    291         -6.039904       -5.926327   1.000000   1.000000
    292         -6.038685       -5.916270   1.000000   1.000000
    293         -6.024871       -5.900193   1.000000   1.000000
    294         -6.024697       -5.884965   1.000000   1.000000
    295         -6.015188       -5.861577   1.000000   1.000000
    296         -5.997503       -5.856466   1.000000   1.000000
    297         -5.992747       -5.846336   1.000000   1.000000
    298         -5.975671       -5.827722   1.000000   1.000000
    299         -5.963459       -5.814538   1.000000   1.000000
    300         -5.957205       -5.783488   1.000000   1.000000
    301         -5.950177       -5.769399   1.000000   1.000000
    302         -5.935513       -5.753825   1.000000   1.000000
    303         -5.915116       -5.750223   1.000000   1.000000
    304         -5.904374       -5.742253   1.000000   1.000000
    305         -5.889643       -5.711013   1.000000   1.000000
    306         -5.867617       -5.696980   1.000000   1.000000
    307         -5.854028       -5.685255   1.000000   1.000000
    308         -5.830026       -5.659870   1.000000   1.000000
    309         -5.816951       -5.645704   1.000000   1.000000
    310         -5.801660       -5.629777   1.000000   1.000000
    311         -5.797014       -5.627092   1.000000   1.000000
    312         -5.770596       -5.609803   1.000000   1.000000
    313         -5.745266       -5.592541   1.000000   1.000000
    314         -5.726366       -5.578836   1.000000   1.000000
    315         -5.720921       -5.573040   1.000000   1.000000
    316         -5.717738       -5.552403   1.000000   1.000000
    317         -5.692398       -5.550076   1.000000   1.000000
    318         -5.670535       -5.543156   1.000000   1.000000
    319         -5.658668       -5.525965   1.000000   1.000000
    320         -5.640890       -5.509274   1.000000   1.000000
    321         -5.634756       -5.488956   1.000000   1.000000
    322         -5.615883       -5.475562   1.000000   1.000000
    323         -5.610441       -5.455018   1.000000   1.000000
    324         -5.598856       -5.442102   1.000000   1.000000
    325         -5.589925       -5.434094   1.000000   1.000000
    326         -5.578698       -5.417863   1.000000   1.000000
    327         -5.568409       -5.405536   1.000000   1.000000
    328         -5.564358       -5.402255   1.000000   1.000000
    329         -5.550803       -5.395659   1.000000   1.000000
    330         -5.528833       -5.383923   1.000000   1.000000
    331         -5.521575       -5.375843   1.000000   1.000000
    332         -5.503956       -5.361882   1.000000   1.000000
    333         -5.494066       -5.337548   1.000000   1.000000
    334         -5.484132       -5.332149   1.000000   1.000000
    335         -5.469742       -5.328409   1.000000   1.000000
    336         -5.458755       -5.318531   1.000000   1.000000
    337         -5.444435       -5.292084   1.000000   1.000000
    338         -5.430298       -5.279859   1.000000   1.000000
    339         -5.423485       -5.274201   1.000000   1.000000
    340         -5.407300       -5.257285   1.000000   1.000000
    341         -5.404165       -5.247670   1.000000   1.000000
    342         -5.386732       -5.246963   1.000000   1.000000
    343         -5.375661       -5.221193   1.000000   1.000000
    344         -5.357445       -5.195503   1.000000   1.000000
    345         -5.347403       -5.192794   1.000000   1.000000
    346         -5.329747       -5.181419   1.000000   1.000000
    347         -5.325083       -5.173454   1.000000   1.000000
    348         -5.309267       -5.166668   1.000000   1.000000
    349         -5.294193       -5.150441   1.000000   1.000000
    350         -5.282231       -5.137018   1.000000   1.000000
    351         -5.277751       -5.130148   1.000000   1.000000
    352         -5.268769       -5.111103   1.000000   1.000000
    353         -5.254304       -5.098353   1.000000   1.000000
    354         -5.252607       -5.062706   1.000000   1.000000
    355         -5.239660       -5.053496   1.000000   1.000000
    356         -5.228516       -5.039670   1.000000   1.000000
    357         -5.217180       -5.022078   1.000000   1.000000
    358         -5.199431       -5.002832   1.000000   1.000000
    359         -5.182050       -4.981399   1.000000   1.000000
    360         -5.178071       -4.948720   1.000000   1.000000
    361         -5.162979       -4.921614   1.000000   1.000000
    362         -5.154608       -4.902280   1.000000   1.000000
    363         -5.136899       -4.884363   1.000000   1.000000
    364         -5.129999       -4.863491   1.000000   1.000000
    365         -5.107399       -4.843826   1.000000   1.000000
    366         -5.104309       -4.830036   1.000000   1.000000
    367         -5.098912       -4.794872   1.000000   1.000000
    368         -5.078827       -4.793197   1.000000   1.000000
    369         -5.059838       -4.772875   1.000000   1.000000
    370         -5.054474       -4.764264   1.000000   1.000000
    371         -5.002031       -4.749724   1.000000   1.000000
    372         -4.997543       -4.705397   1.000000   1.000000
    373         -4.983615       -4.699995   1.000000   1.000000
    374         -4.945178       -4.676896   1.000000   1.000000
    375         -4.922788       -4.664136   1.000000   1.000000
    376         -4.907375       -4.643931   1.000000   1.000000
    377         -4.901482       -4.623642   1.000000   1.000000
    378         -4.884976       -4.616228   1.000000   1.000000
    379         -4.873700       -4.598319   1.000000   1.000000
    380         -4.866264       -4.587473   1.000000   1.000000
    381         -4.841122       -4.571721   1.000000   1.000000
    382         -4.809644       -4.559912   1.000000   1.000000
    383         -4.773777       -4.526323   1.000000   1.000000
    384         -4.757475       -4.515170   1.000000   1.000000
    385         -4.746432       -4.496762   1.000000   1.000000
    386         -4.734300       -4.477730   1.000000   1.000000
    387         -4.717383       -4.469906   1.000000   1.000000
    388         -4.711652       -4.423706   1.000000   1.000000
    389         -4.696874       -4.408501   1.000000   1.000000
    390         -4.678562       -4.402520   1.000000   1.000000
    391         -4.653399       -4.379488   1.000000   1.000000
    392         -4.650445       -4.363984   1.000000   1.000000
    393         -4.620049       -4.336109   1.000000   1.000000
    394         -4.609069       -4.328326   1.000000   1.000000
    395         -4.604514       -4.306760   1.000000   1.000000
    396         -4.580161       -4.302431   1.000000   1.000000
    397         -4.565157       -4.286775   1.000000   1.000000
    398         -4.549948       -4.271123   1.000000   1.000000
    399         -4.541680       -4.262354   1.000000   1.000000
    400         -4.537952       -4.244701   1.000000   1.000000
    401         -4.518215       -4.239146   1.000000   1.000000
    402         -4.514403       -4.223587   1.000000   1.000000
    403         -4.503227       -4.218883   1.000000   1.000000
    404         -4.492919       -4.207454   1.000000   1.000000
    405         -4.462314       -4.194764   1.000000   1.000000
    406         -4.439699       -4.185229   1.000000   1.000000
    407         -4.403542       -4.169967   1.000000   1.000000
    408         -4.389149       -4.156055   1.000000   1.000000
    409         -4.383397       -4.139037   1.000000   1.000000
    410         -4.364777       -4.128963   1.000000   1.000000
    411         -4.357397       -4.115170   1.000000   1.000000
    412         -4.332031       -4.104950   1.000000   1.000000
    413         -4.321994       -4.092976   1.000000   1.000000
    414         -4.312624       -4.082266   1.000000   1.000000
    415         -4.291063       -4.067470   1.000000   1.000000
    416         -4.283400       -4.058457   1.000000   1.000000
    417         -4.258375       -4.027006   1.000000   1.000000
    418         -4.245623       -4.011436   1.000000   1.000000
    419         -4.239431       -3.999999   1.000000   1.000000
    420         -4.234206       -3.984322   1.000000   1.000000
    421         -4.230222       -3.969205   1.000000   1.000000
    422         -4.211201       -3.954915   1.000000   1.000000
    423         -4.195674       -3.945235   1.000000   1.000000
    424         -4.178743       -3.940743   1.000000   1.000000
    425         -4.173986       -3.928628   1.000000   1.000000
    426         -4.156381       -3.920224   1.000000   1.000000
    427         -4.145052       -3.913682   1.000000   1.000000
    428         -4.133242       -3.905893   1.000000   1.000000
    429         -4.107076       -3.892296   1.000000   1.000000
    430         -4.102878       -3.872859   1.000000   1.000000
    431         -4.093026       -3.870489   1.000000   1.000000
    432         -4.075814       -3.861258   1.000000   1.000000
    433         -4.072020       -3.853406   1.000000   1.000000
    434         -4.071196       -3.840647   1.000000   1.000000
    435         -4.052145       -3.829802   1.000000   1.000000
    436         -4.041697       -3.826089   1.000000   1.000000
    437         -4.033831       -3.806809   1.000000   1.000000
    438         -4.001868       -3.805023   1.000000   1.000000
    439         -3.991139       -3.798207   1.000000   1.000000
    440         -3.977873       -3.779018   1.000000   1.000000
    441         -3.970927       -3.770663   1.000000   1.000000
    442         -3.967587       -3.765894   1.000000   1.000000
    443         -3.948028       -3.757627   1.000000   1.000000
    444         -3.938662       -3.748670   1.000000   1.000000
    445         -3.930531       -3.734591   1.000000   1.000000
    446         -3.915488       -3.728019   1.000000   1.000000
    447         -3.900885       -3.720983   1.000000   1.000000
    448         -3.890304       -3.713637   1.000000   1.000000
    449         -3.878555       -3.708537   1.000000   1.000000
    450         -3.870878       -3.696406   1.000000   1.000000
    451         -3.859644       -3.682959   1.000000   1.000000
    452         -3.853466       -3.678087   1.000000   1.000000
    453         -3.847441       -3.676205   1.000000   1.000000
    454         -3.837106       -3.667106   1.000000   1.000000
    455         -3.834267       -3.655207   1.000000   1.000000
    456         -3.830777       -3.648323   1.000000   1.000000
    457         -3.814791       -3.643325   1.000000   1.000000
    458         -3.812375       -3.630582   1.000000   1.000000
    459         -3.797105       -3.624197   1.000000   1.000000
    460         -3.789641       -3.616201   1.000000   1.000000
    461         -3.782053       -3.606980   1.000000   1.000000
    462         -3.774129       -3.599273   1.000000   1.000000
    463         -3.766628       -3.594925   1.000000   1.000000
    464         -3.755529       -3.574160   1.000000   1.000000