 running  192 mpi-ranks, on    1 nodes
 distrk:  each k-point on  192 cores,    1 groups
 distr:  one band on    4 cores,   48 groups
 vasp.6.4.3 19Mar24 (build Mar 01 2025 18:03:59) gamma-only                     
  
 POSCAR found type information on POSCAR CeO Ir
 POSCAR found :  3 types and     143 ions
 Reading from existing POTCAR
 scaLAPACK will be used
 -----------------------------------------------------------------------------
|                                                                             |
|           W    W    AA    RRRRR   N    N  II  N    N   GGGG   !!!           |
|           W    W   A  A   R    R  NN   N  II  NN   N  G    G  !!!           |
|           W    W  A    A  R    R  N N  N  II  N N  N  G       !!!           |
|           W WW W  AAAAAA  RRRRR   N  N N  II  N  N N  G  GGG   !            |
|           WW  WW  A    A  R   R   N   NN  II  N   NN  G    G                |
|           W    W  A    A  R    R  N    N  II  N    N   GGGG   !!!           |
|                                                                             |
|     For optimal performance we recommend to set                             |
|       NCORE = 2 up to number-of-cores-per-socket                            |
|     NCORE specifies how many cores store one orbital (NPAR=cpu/NCORE).      |
|     This setting can greatly improve the performance of VASP for DFT.       |
|     The default, NCORE=1 might be grossly inefficient on modern             |
|     multi-core architectures or massively parallel machines. Do your        |
|     own testing! More info at https://www.vasp.at/wiki/index.php/NCORE      |
|     Unfortunately you need to use the default for GW and RPA                |
|     calculations (for HF NCORE is supported but not extensively tested      |
|     yet).                                                                   |
|                                                                             |
 -----------------------------------------------------------------------------

 Reading from existing POTCAR
 -----------------------------------------------------------------------------
|                                                                             |
|               ----> ADVICE to this user running VASP <----                  |
|                                                                             |
|     You have a (more or less) 'large supercell' and for larger cells it     |
|     might be more efficient to use real-space projection operators.         |
|     Therefore, try LREAL= Auto in the INCAR file.                           |
|     Mind: For very accurate calculation, you might also keep the            |
|     reciprocal projection scheme (i.e. LREAL=.FALSE.).                      |
|                                                                             |
 -----------------------------------------------------------------------------

 LDA part: xc-table for (Slater+PW92), standard interpolation
 POSCAR, INCAR and KPOINTS ok, starting setup
 FFT: planning ... GRIDC
 FFT: planning ... GRID_SOFT
 FFT: planning ... GRID
 WAVECAR not read
 WARNING: random wavefunctions but no delay for mixing, default for NELMDL
 entering main loop
       N       E                     dE             d eps       ncg     rms          rms(c)
DAV:   1     0.198806705817E+05    0.19881E+05   -0.48021E+05  2880   0.164E+03
DAV:   2     0.605424260930E+04   -0.13826E+05   -0.12232E+05  3264   0.445E+02
DAV:   3     0.220193134348E+03   -0.58340E+04   -0.54011E+04  3648   0.262E+02
DAV:   4    -0.112725957894E+04   -0.13475E+04   -0.12998E+04  3984   0.127E+02
DAV:   5    -0.123138990912E+04   -0.10413E+03   -0.98963E+02  4704   0.428E+01    0.204E+02
DAV:   6    -0.214172604937E+04   -0.91034E+03   -0.96509E+03  4896   0.944E+01    0.751E+02
DAV:   7    -0.225422205630E+04   -0.11250E+03   -0.13228E+03  4320   0.472E+01    0.757E+02
DAV:   8    -0.231439577112E+04   -0.60174E+02   -0.31400E+02  5232   0.260E+01    0.734E+02
DAV:   9    -0.228230109985E+04    0.32095E+02   -0.33939E+02  4416   0.603E+01    0.735E+02
DAV:  10    -0.210783960316E+04    0.17446E+03   -0.22221E+02  4080   0.356E+01    0.711E+02
DAV:  11    -0.206260301458E+04    0.45237E+02   -0.52770E+02  4176   0.506E+01    0.706E+02
DAV:  12    -0.215323084291E+04   -0.90628E+02   -0.73285E+02  4464   0.668E+01    0.720E+02
DAV:  13    -0.199800465804E+04    0.15523E+03   -0.20819E+02  4080   0.556E+01    0.693E+02
DAV:  14    -0.180531299843E+04    0.19269E+03   -0.16719E+03  4464   0.140E+02    0.661E+02
DAV:  15    -0.138541603220E+04    0.41990E+03   -0.52640E+02  4656   0.740E+01    0.490E+02
DAV:  16    -0.124853090617E+04    0.13689E+03   -0.30518E+03  4704   0.193E+02    0.449E+02
DAV:  17    -0.101679793882E+04    0.23173E+03   -0.18061E+03  4752   0.125E+02    0.388E+02
DAV:  18    -0.961691808996E+03    0.55106E+02   -0.84732E+02  4128   0.101E+02    0.261E+02
DAV:  19    -0.981757896317E+03   -0.20066E+02   -0.68179E+02  4752   0.514E+01    0.275E+02
DAV:  20    -0.100932784991E+04   -0.27570E+02   -0.58158E+02  3696   0.827E+01    0.298E+02
DAV:  21    -0.871001578184E+03    0.13833E+03   -0.18496E+02  3984   0.512E+01    0.274E+02
DAV:  22    -0.846448595590E+03    0.24553E+02   -0.16299E+02  4800   0.179E+01    0.293E+02
DAV:  23    -0.837347882322E+03    0.91007E+01   -0.49482E+01  4752   0.150E+01    0.306E+02
DAV:  24    -0.840474026690E+03   -0.31261E+01   -0.21035E+01  4560   0.102E+01    0.319E+02
DAV:  25    -0.841534136769E+03   -0.10601E+01   -0.27335E+00  3984   0.267E+00    0.317E+02
DAV:  26    -0.840642203540E+03    0.89193E+00   -0.77598E-01  5472   0.113E+00    0.318E+02
DAV:  27    -0.857498420170E+03   -0.16856E+02   -0.17590E+01  4560   0.593E+00    0.322E+02
DAV:  28    -0.855098111710E+03    0.24003E+01   -0.72605E+00  4704   0.481E+00    0.327E+02
DAV:  29    -0.854170456166E+03    0.92766E+00   -0.14077E+01  4848   0.500E+00    0.331E+02
DAV:  30    -0.864308984529E+03   -0.10139E+02   -0.49594E+01  4560   0.153E+01    0.354E+02
DAV:  31    -0.877576394008E+03   -0.13267E+02   -0.85031E+01  4512   0.159E+01    0.386E+02
DAV:  32    -0.883115489584E+03   -0.55391E+01   -0.15129E+02  4704   0.127E+01    0.403E+02
DAV:  33    -0.883969420238E+03   -0.85393E+00   -0.48203E+01  4128   0.721E+00    0.410E+02
DAV:  34    -0.883403096579E+03    0.56632E+00   -0.11358E+01  5184   0.410E+00    0.414E+02
DAV:  35    -0.886948763873E+03   -0.35457E+01   -0.20002E+01  4272   0.459E+00    0.418E+02
DAV:  36    -0.896623133033E+03   -0.96744E+01   -0.10439E+02  4320   0.584E+00    0.420E+02
DAV:  37    -0.899894480501E+03   -0.32713E+01   -0.28301E+01  4224   0.827E+00    0.432E+02
DAV:  38    -0.912351394838E+03   -0.12457E+02   -0.41652E+01  4848   0.141E+01    0.462E+02
DAV:  39    -0.910713348940E+03    0.16380E+01   -0.24773E+01  4704   0.624E+00    0.471E+02
DAV:  40    -0.910371141325E+03    0.34221E+00   -0.38751E+00  4032   0.255E+00    0.472E+02
DAV:  41    -0.921067765663E+03   -0.10697E+02   -0.35170E+01  5280   0.701E+00    0.483E+02
DAV:  42    -0.925308036776E+03   -0.42403E+01   -0.18220E+01  4848   0.647E+00    0.491E+02
DAV:  43    -0.927885525646E+03   -0.25775E+01   -0.54766E+00  4752   0.355E+00    0.494E+02
DAV:  44    -0.928348020664E+03   -0.46250E+00   -0.73627E+00  4944   0.294E+00    0.495E+02
DAV:  45    -0.927222022574E+03    0.11260E+01   -0.67906E+00  4512   0.401E+00    0.502E+02
DAV:  46    -0.922577511265E+03    0.46445E+01   -0.45994E+00  4320   0.561E+00    0.509E+02
DAV:  47    -0.921090760311E+03    0.14868E+01   -0.13087E+00  4368   0.224E+00    0.510E+02
DAV:  48    -0.921211946267E+03   -0.12119E+00   -0.19361E+00  4320   0.317E+00    0.512E+02
DAV:  49    -0.921192237558E+03    0.19709E-01   -0.29044E-01  3600   0.868E-01    0.511E+02
DAV:  50    -0.920991403695E+03    0.20083E+00   -0.42287E-01  4752   0.124E+00    0.511E+02
DAV:  51    -0.106866249442E+04   -0.14767E+03   -0.79726E+03  4656   0.223E+02    0.561E+02
DAV:  52    -0.114474178225E+04   -0.76079E+02   -0.11607E+03  4560   0.698E+01    0.370E+02
DAV:  53    -0.899185978195E+03    0.24556E+03   -0.82921E+02  4224   0.973E+01    0.261E+02
DAV:  54    -0.924737025884E+03   -0.25551E+02   -0.13814E+03  4320   0.113E+02    0.259E+02
DAV:  55    -0.887727043060E+03    0.37010E+02   -0.39509E+02  4272   0.567E+01    0.259E+02
DAV:  56    -0.998877192124E+03   -0.11115E+03   -0.57248E+03  4992   0.227E+02    0.281E+02
DAV:  57    -0.986407000052E+03    0.12470E+02   -0.11949E+03  4656   0.891E+01    0.308E+02
DAV:  58    -0.910916102716E+03    0.75491E+02   -0.55149E+02  4272   0.759E+01    0.184E+02
DAV:  59    -0.974407931313E+03   -0.63492E+02   -0.16804E+03  4320   0.909E+01    0.245E+02
DAV:  60    -0.908217519577E+03    0.66190E+02   -0.93111E+02  4416   0.971E+01    0.169E+02
DAV:  61    -0.936520728741E+03   -0.28303E+02   -0.14815E+03  4464   0.106E+02    0.140E+02
DAV:  62    -0.952787504831E+03   -0.16267E+02   -0.40790E+02  4320   0.332E+01    0.144E+02
DAV:  63    -0.928574350173E+03    0.24213E+02   -0.33316E+02  4560   0.223E+01    0.136E+02
DAV:  64    -0.898206320672E+03    0.30368E+02   -0.38673E+02  4560   0.319E+01    0.134E+02
DAV:  65    -0.885857537788E+03    0.12349E+02   -0.20745E+02  4656   0.190E+01    0.144E+02
DAV:  66    -0.901859766567E+03   -0.16002E+02   -0.19830E+02  4704   0.198E+01    0.155E+02
DAV:  67    -0.870104458220E+03    0.31755E+02   -0.19898E+02  4128   0.244E+01    0.179E+02
DAV:  68    -0.848532438341E+03    0.21572E+02   -0.16084E+02  4320   0.298E+01    0.139E+02
DAV:  69    -0.841030067449E+03    0.75024E+01   -0.87696E+01  4416   0.147E+01    0.163E+02
DAV:  70    -0.830366909144E+03    0.10663E+02   -0.66556E+01  4608   0.108E+01    0.160E+02
DAV:  71    -0.846530713863E+03   -0.16164E+02   -0.35009E+01  4656   0.952E+00    0.163E+02
DAV:  72    -0.853615443127E+03   -0.70847E+01   -0.10847E+02  4512   0.149E+01    0.165E+02
DAV:  73    -0.838658370038E+03    0.14957E+02   -0.82063E+01  4272   0.101E+01    0.178E+02
DAV:  74    -0.830992190145E+03    0.76662E+01   -0.19845E+01  4512   0.566E+00    0.180E+02
DAV:  75    -0.829741017695E+03    0.12512E+01   -0.22607E+00  4128   0.195E+00    0.180E+02
DAV:  76    -0.843843937652E+03   -0.14103E+02   -0.34028E+01  4512   0.100E+01    0.188E+02
DAV:  77    -0.836453157098E+03    0.73908E+01   -0.52219E+01  4320   0.107E+01    0.181E+02
DAV:  78    -0.836731119126E+03   -0.27796E+00   -0.13741E+01  4464   0.445E+00    0.182E+02
DAV:  79    -0.839587107985E+03   -0.28560E+01   -0.98985E+00  4896   0.375E+00    0.182E+02
DAV:  80    -0.842908253510E+03   -0.33211E+01   -0.48348E+00  4800   0.258E+00    0.182E+02
DAV:  81    -0.838457818476E+03    0.44504E+01   -0.88070E+01  4464   0.162E+01    0.169E+02
DAV:  82    -0.817056742779E+03    0.21401E+02   -0.80980E+01  5040   0.113E+01    0.170E+02
DAV:  83    -0.809178741354E+03    0.78780E+01   -0.24409E+01  4512   0.539E+00    0.170E+02
DAV:  84    -0.807447227543E+03    0.17315E+01   -0.35078E+00  4512   0.276E+00    0.170E+02
DAV:  85    -0.807648018562E+03   -0.20079E+00   -0.16203E+00  4848   0.195E+00    0.171E+02
DAV:  86    -0.889761424420E+03   -0.82113E+02   -0.23737E+02  4224   0.423E+01    0.146E+02
DAV:  87    -0.860558830946E+03    0.29203E+02   -0.28333E+02  4704   0.195E+01    0.149E+02
DAV:  88    -0.829165603170E+03    0.31393E+02   -0.10732E+02  4464   0.142E+01    0.148E+02
DAV:  89    -0.812213685674E+03    0.16952E+02   -0.57560E+01  4560   0.139E+01    0.150E+02
DAV:  90    -0.795882743003E+03    0.16331E+02   -0.48731E+01  4608   0.918E+00
 -----------------------------------------------------------------------------
|                                                                             |
|           W    W    AA    RRRRR   N    N  II  N    N   GGGG   !!!           |
|           W    W   A  A   R    R  NN   N  II  NN   N  G    G  !!!           |
|           W    W  A    A  R    R  N N  N  II  N N  N  G       !!!           |
|           W WW W  AAAAAA  RRRRR   N  N N  II  N  N N  G  GGG   !            |
|           WW  WW  A    A  R   R   N   NN  II  N   NN  G    G                |
|           W    W  A    A  R    R  N    N  II  N    N   GGGG   !!!           |
|                                                                             |
|     The electronic self-consistency was not achieved in the given           |
|     number of steps (NELM). The forces and other quantities evaluated       |
|     might not be reliable so examine the results carefully. If you find     |
|     spurious results, we suggest increasing NELM, if you were close to      |
|     convergence or switching to a different ALGO or adjusting the           |
|     density mixing parameters otherwise.                                    |
|                                                                             |
 -----------------------------------------------------------------------------

   1 F= -.79588274E+03 E0= -.79582921E+03  d E =-.795883E+03  mag=    48.6804
 curvature:   0.00 expect dE= 0.000E+00 dE for cont linesearch  0.000E+00
 trial: gam= 0.00000 g(F)=  0.503E+02 g(S)=  0.000E+00 ort = 0.000E+00 (trialstep = 0.100E+01)
 search vector abs. value=  0.503E+02
 bond charge predicted
       N       E                     dE             d eps       ncg     rms          rms(c)
DAV:   1    -0.884766909873E+03   -0.72553E+02   -0.11431E+04  4224   0.173E+02    0.134E+02
DAV:   2    -0.111899711902E+04   -0.23423E+03   -0.29395E+03  4464   0.110E+02    0.282E+02
DAV:   3    -0.999042343696E+03    0.11995E+03   -0.16362E+03  4944   0.809E+01    0.166E+02
DAV:   4    -0.106870178151E+04   -0.69659E+02   -0.16112E+03  5184   0.342E+01    0.237E+02
DAV:   5    -0.942795847181E+03    0.12591E+03   -0.24474E+03  4464   0.144E+02    0.123E+02
DAV:   6    -0.913035713234E+03    0.29760E+02   -0.58373E+02  4704   0.303E+01    0.879E+01
DAV:   7    -0.942584578555E+03   -0.29549E+02   -0.55063E+02  4416   0.261E+01    0.939E+01
DAV:   8    -0.955371845681E+03   -0.12787E+02   -0.57993E+02  4608   0.184E+01    0.768E+01
DAV:   9    -0.943575983481E+03    0.11796E+02   -0.28416E+02  4368   0.164E+01    0.820E+01
DAV:  10    -0.932171294258E+03    0.11405E+02   -0.15526E+02  4608   0.109E+01    0.523E+01
DAV:  11    -0.944862474265E+03   -0.12691E+02   -0.16238E+02  4608   0.106E+01    0.822E+01
DAV:  12    -0.940737119560E+03    0.41254E+01   -0.18707E+02  4416   0.865E+00    0.546E+01
DAV:  13    -0.932149425072E+03    0.85877E+01   -0.10481E+02  4512   0.747E+00    0.400E+01
DAV:  14    -0.936174868557E+03   -0.40254E+01   -0.77692E+01  4608   0.575E+00    0.555E+01
DAV:  15    -0.929449504635E+03    0.67254E+01   -0.25347E+01  4608   0.341E+00    0.325E+01
DAV:  16    -0.932713663826E+03   -0.32642E+01   -0.48737E+01  4560   0.359E+00    0.463E+01
DAV:  17    -0.932421228128E+03    0.29244E+00   -0.28575E+01  4320   0.255E+00    0.323E+01
DAV:  18    -0.931800751844E+03    0.62048E+00   -0.95428E+00  4560   0.140E+00    0.288E+01
DAV:  19    -0.932024433578E+03   -0.22368E+00   -0.93399E+00  4800   0.113E+00    0.304E+01
DAV:  20    -0.931818516747E+03    0.20592E+00   -0.48687E-01  3888   0.664E-01    0.286E+01
DAV:  21    -0.931872928069E+03   -0.54411E-01   -0.17842E-01  4848   0.310E-01    0.286E+01
DAV:  22    -0.932067190508E+03   -0.19426E+00   -0.17198E+00  4464   0.404E-01    0.301E+01
DAV:  23    -0.932059681376E+03    0.75091E-02   -0.35183E-02  3552   0.290E-01    0.301E+01
DAV:  24    -0.932010894046E+03    0.48787E-01   -0.61028E-02  4656   0.125E-01    0.304E+01
DAV:  25    -0.932053914960E+03   -0.43021E-01   -0.52798E-02  3600   0.148E-01    0.302E+01
DAV:  26    -0.932020587628E+03    0.33327E-01   -0.40663E-02  3600   0.127E-01    0.302E+01
DAV:  27    -0.932025637197E+03   -0.50496E-02   -0.12270E-01  3696   0.976E-02    0.300E+01
DAV:  28    -0.932047783924E+03   -0.22147E-01   -0.10350E-01  3600   0.167E-01    0.302E+01
DAV:  29    -0.932026942939E+03    0.20841E-01   -0.35543E-01  4080   0.279E-01    0.300E+01
DAV:  30    -0.932052388893E+03   -0.25446E-01   -0.10737E-02  3552   0.142E-01    0.300E+01
DAV:  31    -0.932066597372E+03   -0.14208E-01   -0.16054E-02  4176   0.934E-02    0.301E+01
DAV:  32    -0.932429516637E+03   -0.36292E+00   -0.99163E-01  4128   0.451E-01    0.321E+01
DAV:  33    -0.932431312132E+03   -0.17955E-02   -0.20682E-02  3696   0.225E-01    0.321E+01
DAV:  34    -0.932424506951E+03    0.68052E-02   -0.14686E-03  4848   0.515E-02    0.321E+01
DAV:  35    -0.932370984624E+03    0.53522E-01   -0.11453E-02  4416   0.143E-01    0.321E+01
DAV:  36    -0.932322834455E+03    0.48150E-01   -0.24130E-01  4176   0.324E-01    0.340E+01
DAV:  37    -0.932343925788E+03   -0.21091E-01   -0.44970E-02  3984   0.187E-01    0.339E+01
DAV:  38    -0.932302868029E+03    0.41058E-01   -0.31326E-02  4416   0.111E-01    0.335E+01
DAV:  39    -0.932401407829E+03   -0.98540E-01   -0.92939E-02  4080   0.302E-01    0.340E+01
DAV:  40    -0.932465010177E+03   -0.63602E-01   -0.72533E-02  3936   0.254E-01    0.348E+01
DAV:  41    -0.932409559725E+03    0.55450E-01   -0.63850E-01  4176   0.470E-01    0.344E+01
DAV:  42    -0.932427632475E+03   -0.18073E-01   -0.18761E-02  3888   0.198E-01    0.344E+01
DAV:  43    -0.932288698511E+03    0.13893E+00   -0.38684E-01  4128   0.441E-01    0.347E+01
DAV:  44    -0.932301165274E+03   -0.12467E-01   -0.17603E-02  3888   0.179E-01    0.347E+01
DAV:  45    -0.932202310207E+03    0.98855E-01   -0.17877E-01  4416   0.390E-01    0.345E+01
DAV:  46    -0.932158716306E+03    0.43594E-01   -0.57448E-02  4224   0.199E-01    0.346E+01
DAV:  47    -0.935452955354E+03   -0.32942E+01   -0.57158E+01  4224   0.839E+00    0.618E+01
DAV:  48    -0.933625899388E+03    0.18271E+01   -0.15749E+01  4800   0.413E+00    0.409E+01
DAV:  49    -0.933606122867E+03    0.19777E-01   -0.15153E+01  4512   0.275E+00    0.414E+01
DAV:  50    -0.933725760745E+03   -0.11964E+00   -0.47662E+00  4272   0.173E+00    0.325E+01
DAV:  51    -0.934135038343E+03   -0.40928E+00   -0.52737E+00  4560   0.153E+00    0.364E+01
DAV:  52    -0.933845746186E+03    0.28929E+00   -0.20470E+00  4848   0.182E+00    0.349E+01
DAV:  53    -0.933890974916E+03   -0.45229E-01   -0.24774E+00  4224   0.140E+00    0.368E+01
DAV:  54    -0.933861004891E+03    0.29970E-01   -0.14528E-01  3984   0.546E-01    0.368E+01
DAV:  55    -0.934183954757E+03   -0.32295E+00   -0.13094E+00  4032   0.125E+00    0.394E+01
DAV:  56    -0.934568044604E+03   -0.38409E+00   -0.13684E+00  4080   0.151E+00    0.406E+01
DAV:  57    -0.933180163888E+03    0.13879E+01   -0.20652E+01  3936   0.517E+00    0.403E+01
DAV:  58    -0.931841062002E+03    0.13391E+01   -0.12777E+01  4368   0.406E+00    0.363E+01
DAV:  59    -0.931140636179E+03    0.70043E+00   -0.26388E+00  4080   0.224E+00    0.364E+01
DAV:  60    -0.926307534159E+03    0.48331E+01   -0.60040E+00  3984   0.239E+00    0.389E+01
DAV:  61    -0.915037883569E+03    0.11270E+02   -0.75239E+00  3696   0.310E+00    0.387E+01
DAV:  62    -0.919508296581E+03   -0.44704E+01   -0.17661E+01  4032   0.483E+00    0.346E+01
DAV:  63    -0.910793003328E+03    0.87153E+01   -0.17431E+01  4128   0.363E+00    0.381E+01
DAV:  64    -0.909016807502E+03    0.17762E+01   -0.16266E+00  4416   0.177E+00    0.387E+01
DAV:  65    -0.906967070738E+03    0.20497E+01   -0.10535E+00  4080   0.111E+00    0.385E+01
DAV:  66    -0.906157045273E+03    0.81003E+00   -0.57251E-01  4224   0.847E-01    0.380E+01
DAV:  67    -0.934080916051E+03   -0.27924E+02   -0.61496E+01  3840   0.753E+00    0.315E+01
DAV:  68    -0.934178776966E+03   -0.97861E-01   -0.13264E+01  4416   0.438E+00    0.279E+01
DAV:  69    -0.932259147822E+03    0.19196E+01   -0.33444E+00  4224   0.231E+00    0.250E+01
DAV:  70    -0.930769830299E+03    0.14893E+01   -0.23073E+00  4176   0.203E+00    0.245E+01
DAV:  71    -0.930583703356E+03    0.18613E+00   -0.16223E+00  4080   0.163E+00    0.243E+01
DAV:  72    -0.936892572563E+03   -0.63089E+01   -0.15323E+01  4464   0.335E+00    0.228E+01
DAV:  73    -0.937092909813E+03   -0.20034E+00   -0.42295E+00  4224   0.174E+00    0.216E+01
DAV:  74    -0.937283617700E+03   -0.19071E+00   -0.62723E-01  4320   0.113E+00    0.223E+01
DAV:  75    -0.936961495350E+03    0.32212E+00   -0.10653E+00  4176   0.128E+00    0.218E+01
DAV:  76    -0.935298720848E+03    0.16628E+01   -0.22832E+00  3792   0.183E+00    0.238E+01
DAV:  77    -0.937372262939E+03   -0.20735E+01   -0.71657E+00  3792   0.337E+00    0.238E+01
DAV:  78    -0.937299798726E+03    0.72464E-01   -0.13431E+00  4512   0.167E+00    0.256E+01
DAV:  79    -0.936701175602E+03    0.59862E+00   -0.60227E-01  4032   0.105E+00    0.255E+01
DAV:  80    -0.936012281913E+03    0.68889E+00   -0.58202E-01  4128   0.997E-01    0.252E+01
DAV:  81    -0.935788765942E+03    0.22352E+00   -0.41773E-01  4416   0.660E-01    0.233E+01
DAV:  82    -0.937888421831E+03   -0.20997E+01   -0.12498E+01  3888   0.306E+00    0.199E+01
DAV:  83    -0.937887637074E+03    0.78476E-03   -0.27957E+00  4272   0.187E+00    0.221E+01
DAV:  84    -0.937975290708E+03   -0.87654E-01   -0.26739E-01  4032   0.663E-01    0.221E+01
DAV:  85    -0.938004751874E+03   -0.29461E-01   -0.17275E-01  4512   0.482E-01    0.220E+01
DAV:  86    -0.938077760808E+03   -0.73009E-01   -0.25215E-01  4224   0.625E-01    0.225E+01
DAV:  87    -0.938931191931E+03   -0.85343E+00   -0.66839E+00  4128   0.229E+00    0.199E+01
DAV:  88    -0.938525399297E+03    0.40579E+00   -0.30675E+00  4416   0.212E+00    0.182E+01
DAV:  89    -0.938532108546E+03   -0.67092E-02   -0.12502E+00  4272   0.129E+00    0.167E+01
DAV:  90    -0.938581841693E+03   -0.49733E-01   -0.51256E-01  4272   0.903E-01
 -----------------------------------------------------------------------------
|                                                                             |
|           W    W    AA    RRRRR   N    N  II  N    N   GGGG   !!!           |
|           W    W   A  A   R    R  NN   N  II  NN   N  G    G  !!!           |
|           W    W  A    A  R    R  N N  N  II  N N  N  G       !!!           |
|           W WW W  AAAAAA  RRRRR   N  N N  II  N  N N  G  GGG   !            |
|           WW  WW  A    A  R   R   N   NN  II  N   NN  G    G                |
|           W    W  A    A  R    R  N    N  II  N    N   GGGG   !!!           |
|                                                                             |
|     The electronic self-consistency was not achieved in the given           |
|     number of steps (NELM). The forces and other quantities evaluated       |
|     might not be reliable so examine the results carefully. If you find     |
|     spurious results, we suggest increasing NELM, if you were close to      |
|     convergence or switching to a different ALGO or adjusting the           |
|     density mixing parameters otherwise.                                    |
|                                                                             |
 -----------------------------------------------------------------------------

   2 F= -.93858184E+03 E0= -.93855874E+03  d E =-.142699E+03  mag=    21.5013
 trial-energy change: -142.699099  1 .order   -0.273629  -50.342499   49.795242
 step:   0.9451(harm=  0.5027)  dis= 0.34984  next Energy=  -939.924012 (dE=-0.144E+03)
 bond charge predicted
       N       E                     dE             d eps       ncg     rms          rms(c)
DAV:   1    -0.941114790170E+03   -0.25827E+01   -0.35655E+01  3072   0.636E+00    0.185E+01
DAV:   2    -0.946347207986E+03   -0.52324E+01   -0.54512E+01  4704   0.792E+00    0.584E+01
DAV:   3    -0.941158411148E+03    0.51888E+01   -0.52424E+01  4752   0.597E+00    0.258E+01
DAV:   4    -0.941165779139E+03   -0.73680E-02   -0.39313E+00  4608   0.285E+00    0.207E+01
DAV:   5    -0.941223521906E+03   -0.57743E-01   -0.93080E+00  4368   0.203E+00    0.169E+01
DAV:   6    -0.941699920337E+03   -0.47640E+00   -0.24685E+00  4560   0.173E+00    0.199E+01
DAV:   7    -0.941549325134E+03    0.15060E+00   -0.21545E+00  4128   0.129E+00    0.187E+01
DAV:   8    -0.941750882840E+03   -0.20156E+00   -0.34359E+00  4464   0.126E+00    0.178E+01
DAV:   9    -0.941920738541E+03   -0.16986E+00   -0.47741E+00  4320   0.143E+00    0.160E+01
DAV:  10    -0.941861188741E+03    0.59550E-01   -0.21697E+00  4560   0.171E+00    0.138E+01
DAV:  11    -0.941894790087E+03   -0.33601E-01   -0.23887E+00  4416   0.151E+00    0.129E+01
DAV:  12    -0.941892394800E+03    0.23953E-02   -0.15931E+00  4560   0.120E+00    0.104E+01
DAV:  13    -0.941964864767E+03   -0.72470E-01   -0.18044E-01  4032   0.603E-01    0.904E+00
DAV:  14    -0.942099108760E+03   -0.13424E+00   -0.27023E-01  4416   0.689E-01    0.102E+01
DAV:  15    -0.942085709329E+03    0.13399E-01   -0.39803E-01  4416   0.723E-01    0.880E+00
DAV:  16    -0.941972676535E+03    0.11303E+00   -0.32027E-01  4176   0.675E-01    0.670E+00
DAV:  17    -0.942040274037E+03   -0.67598E-01   -0.64402E-01  4416   0.767E-01    0.817E+00
DAV:  18    -0.942155322294E+03   -0.11505E+00   -0.36332E-01  3888   0.471E-01    0.894E+00
DAV:  19    -0.942091529832E+03    0.63792E-01   -0.29081E-02  4272   0.237E-01    0.925E+00
DAV:  20    -0.942069684393E+03    0.21845E-01   -0.58925E-03  4128   0.971E-02    0.923E+00
DAV:  21    -0.942075205233E+03   -0.55208E-02   -0.12177E-03  4800   0.418E-02    0.922E+00
DAV:  22    -0.942065307289E+03    0.98979E-02   -0.11946E-02  4416   0.113E-01    0.965E+00
DAV:  23    -0.942129284732E+03   -0.63977E-01   -0.72732E-02  4128   0.297E-01    0.106E+01
DAV:  24    -0.942089627767E+03    0.39657E-01   -0.21596E-02  3744   0.166E-01    0.104E+01
DAV:  25    -0.942105799010E+03   -0.16171E-01   -0.32716E-02  4080   0.933E-02    0.106E+01
DAV:  26    -0.942103401116E+03    0.23979E-02   -0.69792E-03  3792   0.657E-02    0.107E+01
DAV:  27    -0.942120782592E+03   -0.17381E-01   -0.21515E-02  4416   0.169E-01    0.111E+01
DAV:  28    -0.942093415534E+03    0.27367E-01   -0.51156E-03  3840   0.100E-01    0.109E+01
DAV:  29    -0.942154928464E+03   -0.61513E-01   -0.10805E-01  4032   0.394E-01    0.993E+00
DAV:  30    -0.942169075166E+03   -0.14147E-01   -0.43971E-02  4032   0.251E-01    0.852E+00
DAV:  31    -0.942259944953E+03   -0.90870E-01   -0.45039E-02  4128   0.253E-01    0.911E+00
DAV:  32    -0.942283015643E+03   -0.23071E-01   -0.31523E-02  4176   0.188E-01    0.886E+00
DAV:  33    -0.942312786124E+03   -0.29770E-01   -0.74410E-02  3936   0.245E-01    0.779E+00
DAV:  34    -0.942355200267E+03   -0.42414E-01   -0.45335E-02  4176   0.248E-01    0.705E+00
DAV:  35    -0.942401740275E+03   -0.46540E-01   -0.52349E-02  4176   0.265E-01    0.690E+00
DAV:  36    -0.942410456070E+03   -0.87158E-02   -0.11541E-01  3984   0.451E-01    0.501E+00
DAV:  37    -0.942423528067E+03   -0.13072E-01   -0.21858E-02  3696   0.209E-01    0.504E+00
DAV:  38    -0.942430993160E+03   -0.74651E-02   -0.66389E-03  4560   0.925E-02    0.502E+00
DAV:  39    -0.942450076619E+03   -0.19083E-01   -0.24624E-02  4224   0.180E-01    0.517E+00
DAV:  40    -0.942450213112E+03   -0.13649E-03   -0.32091E-02  3984   0.245E-01    0.424E+00
DAV:  41    -0.942469930174E+03   -0.19717E-01   -0.31956E-02  4176   0.209E-01    0.406E+00
DAV:  42    -0.942472960449E+03   -0.30303E-02   -0.33143E-03  3888   0.872E-02    0.401E+00
DAV:  43    -0.942482374799E+03   -0.94143E-02   -0.51831E-03  4272   0.853E-02    0.380E+00
DAV:  44    -0.942486332458E+03   -0.39577E-02   -0.13399E-03  4080   0.510E-02    0.381E+00
DAV:  45    -0.942484613194E+03    0.17193E-02   -0.32408E-04  4368   0.253E-02    0.377E+00
DAV:  46    -0.942492482254E+03   -0.78691E-02   -0.13972E-03  4224   0.440E-02    0.380E+00
DAV:  47    -0.942082616655E+03    0.40987E+00   -0.87419E-01  4080   0.119E+00    0.694E+00
DAV:  48    -0.942091632030E+03   -0.90154E-02   -0.19869E-01  4128   0.493E-01    0.882E+00
DAV:  49    -0.942093252331E+03   -0.16203E-02   -0.15541E-02  3696   0.175E-01    0.849E+00
DAV:  50    -0.942148351567E+03   -0.55099E-01   -0.29493E-02  3840   0.177E-01    0.751E+00
DAV:  51    -0.942255896656E+03   -0.10755E+00   -0.67401E-02  4032   0.282E-01    0.647E+00
DAV:  52    -0.942536534595E+03   -0.28064E+00   -0.45639E-01  3936   0.857E-01    0.736E+00
DAV:  53    -0.942535531520E+03    0.10031E-02   -0.57144E-01  3936   0.551E-01    0.651E+00
DAV:  54    -0.942588586258E+03   -0.53055E-01   -0.14745E-01  3792   0.419E-01    0.902E+00
DAV:  55    -0.942555281802E+03    0.33304E-01   -0.18151E-02  3840   0.198E-01    0.891E+00
DAV:  56    -0.942543082395E+03    0.12199E-01   -0.48657E-03  4272   0.776E-02    0.888E+00
DAV:  57    -0.942488721776E+03    0.54361E-01   -0.25986E-01  3984   0.340E-01    0.604E+00
DAV:  58    -0.942543423163E+03   -0.54701E-01   -0.61558E-02  3888   0.312E-01    0.524E+00
DAV:  59    -0.942585106352E+03   -0.41683E-01   -0.10246E-01  4080   0.304E-01    0.794E+00
DAV:  60    -0.942545495900E+03    0.39610E-01   -0.82396E-02  3600   0.193E-01    0.658E+00
DAV:  61    -0.942584079379E+03   -0.38583E-01   -0.10192E-01  3984   0.293E-01    0.728E+00
DAV:  62    -0.942594520676E+03   -0.10441E-01   -0.33315E-01  3744   0.408E-01    0.547E+00
DAV:  63    -0.942627263704E+03   -0.32743E-01   -0.14659E-01  4176   0.321E-01    0.449E+00
DAV:  64    -0.942642948758E+03   -0.15685E-01   -0.90325E-02  3840   0.358E-01    0.324E+00
DAV:  65    -0.942639421898E+03    0.35269E-02   -0.26158E-02  4032   0.234E-01    0.243E+00
DAV:  66    -0.942636191524E+03    0.32304E-02   -0.18081E-02  3936   0.175E-01    0.195E+00
DAV:  67    -0.942654669418E+03   -0.18478E-01   -0.39520E-02  3840   0.243E-01    0.198E+00
DAV:  68    -0.942661437169E+03   -0.67678E-02   -0.37466E-02  4080   0.213E-01    0.154E+00
DAV:  69    -0.942680130374E+03   -0.18693E-01   -0.12899E-02  3984   0.162E-01    0.139E+00
DAV:  70    -0.942694774335E+03   -0.14644E-01   -0.13181E-02  3984   0.133E-01    0.120E+00
DAV:  71    -0.942706436079E+03   -0.11662E-01   -0.67588E-03  4080   0.105E-01    0.104E+00
DAV:  72    -0.942714976731E+03   -0.85407E-02   -0.11062E-02  4176   0.121E-01    0.138E+00
DAV:  73    -0.942718218931E+03   -0.32422E-02   -0.54868E-03  4032   0.103E-01    0.130E+00
DAV:  74    -0.942721024788E+03   -0.28059E-02   -0.27006E-03  4224   0.581E-02    0.119E+00
DAV:  75    -0.942722559854E+03   -0.15351E-02   -0.13392E-03  4224   0.395E-02    0.120E+00
DAV:  76    -0.942721821311E+03    0.73854E-03   -0.11000E-03  4176   0.341E-02    0.111E+00
DAV:  77    -0.942721414569E+03    0.40674E-03   -0.35620E-03  3984   0.629E-02    0.953E-01
DAV:  78    -0.942722848591E+03   -0.14340E-02   -0.19423E-03  4656   0.506E-02    0.988E-01
DAV:  79    -0.942723000106E+03   -0.15152E-03   -0.31802E-04  3936   0.220E-02    0.103E+00
DAV:  80    -0.942723110075E+03   -0.10997E-03   -0.12935E-03  4032   0.325E-02    0.105E+00
DAV:  81    -0.942725324477E+03   -0.22144E-02   -0.25443E-03  4176   0.536E-02    0.119E+00
DAV:  82    -0.942728592211E+03   -0.32677E-02   -0.94309E-03  4368   0.106E-01    0.728E-01
DAV:  83    -0.942727467517E+03    0.11247E-02   -0.12996E-02  4320   0.126E-01    0.802E-01
DAV:  84    -0.942729621821E+03   -0.21543E-02   -0.45282E-03  4368   0.739E-02    0.961E-01
DAV:  85    -0.942731705566E+03   -0.20837E-02   -0.33462E-03  4176   0.565E-02    0.838E-01
DAV:  86    -0.942733005639E+03   -0.13001E-02   -0.20539E-03  4368   0.442E-02    0.836E-01
DAV:  87    -0.942734695134E+03   -0.16895E-02   -0.22640E-03  4176   0.516E-02    0.899E-01
DAV:  88    -0.942734620116E+03    0.75019E-04   -0.58837E-04  3984   0.348E-02    0.871E-01
DAV:  89    -0.942734067204E+03    0.55291E-03   -0.29840E-04  4176   0.199E-02    0.848E-01
DAV:  90    -0.942733550509E+03    0.51670E-03   -0.22528E-04  4368   0.174E-02
 -----------------------------------------------------------------------------
|                                                                             |
|           W    W    AA    RRRRR   N    N  II  N    N   GGGG   !!!           |
|           W    W   A  A   R    R  NN   N  II  NN   N  G    G  !!!           |
|           W    W  A    A  R    R  N N  N  II  N N  N  G       !!!           |
|           W WW W  AAAAAA  RRRRR   N  N N  II  N  N N  G  GGG   !            |
|           WW  WW  A    A  R   R   N   NN  II  N   NN  G    G                |
|           W    W  A    A  R    R  N    N  II  N    N   GGGG   !!!           |
|                                                                             |
|     The electronic self-consistency was not achieved in the given           |
|     number of steps (NELM). The forces and other quantities evaluated       |
|     might not be reliable so examine the results carefully. If you find     |
|     spurious results, we suggest increasing NELM, if you were close to      |
|     convergence or switching to a different ALGO or adjusting the           |
|     density mixing parameters otherwise.                                    |
|                                                                             |
 -----------------------------------------------------------------------------

   3 F= -.94273355E+03 E0= -.94267973E+03  d E =-.146851E+03  mag=    18.2857
 curvature:  -0.05 expect dE=-0.592E+01 dE for cont linesearch -0.174E+01
 ZBRENT: interpolating
 opt :   0.5215  next Energy=  -951.396039 (dE=-0.156E+03)
 bond charge predicted
       N       E                     dE             d eps       ncg     rms          rms(c)
DAV:   1    -0.944816834977E+03   -0.20828E+01   -0.20730E+03  3072   0.510E+01    0.522E+01
DAV:   2    -0.994523623929E+03   -0.49707E+02   -0.34116E+02  4848   0.249E+01    0.965E+01
DAV:   3    -0.958678281548E+03    0.35845E+02   -0.24042E+02  4752   0.167E+01    0.671E+01
DAV:   4    -0.952467403580E+03    0.62109E+01   -0.26020E+01  5040   0.779E+00    0.559E+01
DAV:   5    -0.959618507013E+03   -0.71511E+01   -0.40821E+01  5232   0.853E+00    0.726E+01
DAV:   6    -0.960524845184E+03   -0.90634E+00   -0.43028E+01  4800   0.594E+00    0.747E+01
DAV:   7    -0.957066677150E+03    0.34582E+01   -0.26958E+01  4848   0.506E+00    0.651E+01
DAV:   8    -0.961574984116E+03   -0.45083E+01   -0.70825E+01  4896   0.736E+00    0.645E+01
DAV:   9    -0.953547250014E+03    0.80277E+01   -0.12359E+02  4320   0.856E+00    0.483E+01
DAV:  10    -0.945632320600E+03    0.79149E+01   -0.62605E+01  4704   0.866E+00    0.356E+01
DAV:  11    -0.945015876868E+03    0.61644E+00   -0.46815E+01  4368   0.608E+00    0.288E+01
DAV:  12    -0.945944426516E+03   -0.92855E+00   -0.15895E+01  4560   0.382E+00    0.270E+01
DAV:  13    -0.946706936842E+03   -0.76251E+00   -0.83891E+00  4320   0.271E+00    0.253E+01
DAV:  14    -0.946891514773E+03   -0.18458E+00   -0.91525E-01  3984   0.124E+00    0.220E+01
DAV:  15    -0.947404372901E+03   -0.51286E+00   -0.12512E+00  4512   0.132E+00    0.226E+01
DAV:  16    -0.947526972439E+03   -0.12260E+00   -0.42262E-01  4368   0.847E-01    0.198E+01
DAV:  17    -0.948199949788E+03   -0.67298E+00   -0.16600E+00  4560   0.154E+00    0.170E+01
DAV:  18    -0.948635487035E+03   -0.43554E+00   -0.30369E+00  4368   0.161E+00    0.146E+01
DAV:  19    -0.948665675755E+03   -0.30189E-01   -0.11674E+00  4416   0.129E+00    0.112E+01
DAV:  20    -0.948749903554E+03   -0.84228E-01   -0.89376E-01  4272   0.112E+00    0.107E+01
DAV:  21    -0.948974686955E+03   -0.22478E+00   -0.88571E-01  4272   0.109E+00    0.760E+00
DAV:  22    -0.949095863458E+03   -0.12118E+00   -0.45530E-01  4272   0.856E-01    0.734E+00
DAV:  23    -0.949152828424E+03   -0.56965E-01   -0.54321E-01  4368   0.736E-01    0.742E+00
DAV:  24    -0.949145382835E+03    0.74456E-02   -0.14542E-01  4272   0.554E-01    0.653E+00
DAV:  25    -0.949151941533E+03   -0.65587E-02   -0.16186E-01  4320   0.470E-01    0.617E+00
DAV:  26    -0.949204578998E+03   -0.52637E-01   -0.26997E-01  4272   0.558E-01    0.473E+00
DAV:  27    -0.949258515435E+03   -0.53936E-01   -0.11592E-01  4320   0.517E-01    0.422E+00
DAV:  28    -0.949287238296E+03   -0.28723E-01   -0.89202E-02  4176   0.419E-01    0.417E+00
DAV:  29    -0.949330773399E+03   -0.43535E-01   -0.88880E-02  4272   0.377E-01    0.370E+00
DAV:  30    -0.949387102808E+03   -0.56329E-01   -0.19916E-01  4320   0.429E-01    0.514E+00
DAV:  31    -0.949408323571E+03   -0.21221E-01   -0.61807E-02  4080   0.307E-01    0.361E+00
DAV:  32    -0.949428424213E+03   -0.20101E-01   -0.56595E-02  4272   0.274E-01    0.404E+00
DAV:  33    -0.949436783774E+03   -0.83596E-02   -0.21503E-02  4224   0.207E-01    0.348E+00
DAV:  34    -0.949473032992E+03   -0.36249E-01   -0.91586E-02  4272   0.341E-01    0.283E+00
DAV:  35    -0.949548413926E+03   -0.75381E-01   -0.89961E-02  4272   0.319E-01    0.405E+00
DAV:  36    -0.949565767991E+03   -0.17354E-01   -0.33507E-02  4128   0.233E-01    0.349E+00
DAV:  37    -0.949591434662E+03   -0.25667E-01   -0.16627E-02  4128   0.165E-01    0.365E+00
DAV:  38    -0.949602237328E+03   -0.10803E-01   -0.10835E-02  4320   0.116E-01    0.334E+00
DAV:  39    -0.949629897197E+03   -0.27660E-01   -0.16425E-02  4272   0.151E-01    0.293E+00
DAV:  40    -0.949661569255E+03   -0.31672E-01   -0.26508E-02  4224   0.171E-01    0.182E+00
DAV:  41    -0.949707842824E+03   -0.46274E-01   -0.45892E-02  4224   0.208E-01    0.169E+00
DAV:  42    -0.949711902460E+03   -0.40596E-02   -0.11727E-02  4032   0.145E-01    0.150E+00
DAV:  43    -0.949719341251E+03   -0.74388E-02   -0.10788E-02  4128   0.119E-01    0.145E+00
DAV:  44    -0.949727041435E+03   -0.77002E-02   -0.85565E-03  4176   0.118E-01    0.117E+00
DAV:  45    -0.949745954806E+03   -0.18913E-01   -0.99916E-03  4320   0.115E-01    0.182E+00
DAV:  46    -0.949752420827E+03   -0.64660E-02   -0.26491E-03  3888   0.767E-02    0.166E+00
DAV:  47    -0.949772373397E+03   -0.19953E-01   -0.95438E-03  4224   0.121E-01    0.118E+00
DAV:  48    -0.949782469553E+03   -0.10096E-01   -0.51562E-03  4608   0.102E-01    0.117E+00
DAV:  49    -0.949797370495E+03   -0.14901E-01   -0.56064E-03  4512   0.925E-02    0.117E+00
DAV:  50    -0.949815286114E+03   -0.17916E-01   -0.32982E-03  4176   0.769E-02    0.102E+00
DAV:  51    -0.949823806590E+03   -0.85205E-02   -0.22649E-03  4224   0.599E-02    0.972E-01
DAV:  52    -0.949839034296E+03   -0.15228E-01   -0.27495E-03  4272   0.634E-02    0.787E-01
DAV:  53    -0.949848725292E+03   -0.96910E-02   -0.12594E-03  4032   0.499E-02    0.630E-01
DAV:  54    -0.949854773599E+03   -0.60483E-02   -0.97249E-04  4224   0.328E-02    0.464E-01
DAV:  55    -0.949872846259E+03   -0.18073E-01   -0.16926E-03  3984   0.470E-02    0.395E-01
DAV:  56    -0.949883568005E+03   -0.10722E-01   -0.10860E-03  4416   0.421E-02    0.318E-01
DAV:  57    -0.949898673458E+03   -0.15105E-01   -0.96762E-04  4032   0.424E-02    0.245E-01
DAV:  58    -0.949906324647E+03   -0.76512E-02   -0.62807E-04  4272   0.317E-02    0.269E-01
DAV:  59    -0.949916416565E+03   -0.10092E-01   -0.81889E-04  4032   0.304E-02    0.193E-01
DAV:  60    -0.949923610830E+03   -0.71943E-02   -0.44923E-04  4176   0.250E-02    0.205E-01
DAV:  61    -0.949931288901E+03   -0.76781E-02   -0.57057E-04  4032   0.243E-02    0.110E-01
DAV:  62    -0.949935966163E+03   -0.46773E-02   -0.34113E-04  4176   0.210E-02    0.170E-01
DAV:  63    -0.949939246997E+03   -0.32808E-02   -0.21528E-04  4032   0.166E-02    0.146E-01
DAV:  64    -0.949941272696E+03   -0.20257E-02   -0.14777E-04  4128   0.131E-02    0.125E-01
DAV:  65    -0.949943547721E+03   -0.22750E-02   -0.17927E-04  3840   0.128E-02    0.108E-01
DAV:  66    -0.949946479049E+03   -0.29313E-02   -0.24012E-04  3936   0.149E-02    0.121E-01
DAV:  67    -0.949948169488E+03   -0.16904E-02   -0.21597E-04  3984   0.127E-02    0.121E-01
DAV:  68    -0.949948469922E+03   -0.30043E-03   -0.44170E-05  4176   0.686E-03    0.115E-01
DAV:  69    -0.949949190314E+03   -0.72039E-03   -0.17917E-04  3792   0.104E-02    0.106E-01
DAV:  70    -0.949949394799E+03   -0.20448E-03   -0.43283E-05  4176   0.620E-03    0.980E-02
DAV:  71    -0.949949847283E+03   -0.45248E-03   -0.23705E-04  3696   0.116E-02    0.102E-01
DAV:  72    -0.949949813299E+03    0.33984E-04   -0.52182E-04  3600   0.168E-02    0.101E-01
DAV:  73    -0.949949802280E+03    0.11019E-04   -0.10554E-04  4128   0.993E-03    0.105E-01
DAV:  74    -0.949949940106E+03   -0.13783E-03   -0.89664E-05  3696   0.733E-03    0.122E-01
DAV:  75    -0.949949984389E+03   -0.44283E-04   -0.21884E-04  3888   0.990E-03    0.121E-01
DAV:  76    -0.949950028838E+03   -0.44449E-04   -0.15067E-04  3984   0.854E-03    0.105E-01
DAV:  77    -0.949949887479E+03    0.14136E-03   -0.12411E-03  3648   0.222E-02    0.109E-01
DAV:  78    -0.949949968390E+03   -0.80910E-04   -0.13441E-04  4128   0.116E-02    0.961E-02
DAV:  79    -0.949950031879E+03   -0.63490E-04   -0.15935E-04  3984   0.925E-03    0.800E-02
DAV:  80    -0.949950099058E+03   -0.67178E-04   -0.32776E-05  3936   0.706E-03    0.573E-02
DAV:  81    -0.949950038123E+03    0.60935E-04   -0.89585E-05  3840   0.752E-03    0.438E-02
DAV:  82    -0.949950125510E+03   -0.87388E-04   -0.39085E-05  3696   0.570E-03    0.624E-02
DAV:  83    -0.949950129129E+03   -0.36185E-05   -0.77286E-06  2832   0.332E-03    0.571E-02
DAV:  84    -0.949950132623E+03   -0.34943E-05   -0.69495E-06  2544   0.241E-03    0.477E-02
DAV:  85    -0.949950127793E+03    0.48303E-05   -0.12666E-05  3120   0.332E-03    0.317E-02
DAV:  86    -0.949950081836E+03    0.45957E-04   -0.80387E-06  3360   0.316E-03    0.289E-02
DAV:  87    -0.949950070939E+03    0.10897E-04   -0.76315E-06  2736   0.271E-03    0.383E-02
DAV:  88    -0.949950043346E+03    0.27593E-04   -0.19929E-05  2784   0.348E-03    0.389E-02
DAV:  89    -0.949950002991E+03    0.40355E-04   -0.14101E-05  3264   0.310E-03    0.320E-02
DAV:  90    -0.949950022511E+03   -0.19520E-04   -0.32092E-06  2112   0.186E-03
 -----------------------------------------------------------------------------
|                                                                             |
|           W    W    AA    RRRRR   N    N  II  N    N   GGGG   !!!           |
|           W    W   A  A   R    R  NN   N  II  NN   N  G    G  !!!           |
|           W    W  A    A  R    R  N N  N  II  N N  N  G       !!!           |
|           W WW W  AAAAAA  RRRRR   N  N N  II  N  N N  G  GGG   !            |
|           WW  WW  A    A  R   R   N   NN  II  N   NN  G    G                |
|           W    W  A    A  R    R  N    N  II  N    N   GGGG   !!!           |
|                                                                             |
|     The electronic self-consistency was not achieved in the given           |
|     number of steps (NELM). The forces and other quantities evaluated       |
|     might not be reliable so examine the results carefully. If you find     |
|     spurious results, we suggest increasing NELM, if you were close to      |
|     convergence or switching to a different ALGO or adjusting the           |
|     density mixing parameters otherwise.                                    |
|                                                                             |
 -----------------------------------------------------------------------------

   4 F= -.94995002E+03 E0= -.94989467E+03  d E =-.154067E+03  mag=    18.3285
 curvature:  -0.26 expect dE=-0.477E+01 dE for cont linesearch -0.107E+00
 ZBRENT: interpolating
 opt :   0.5639  next Energy=  -950.046494 (dE=-0.154E+03)
 bond charge predicted
       N       E                     dE             d eps       ncg     rms          rms(c)
DAV:   1    -0.950040649713E+03   -0.90647E-01   -0.20279E+01  2880   0.484E+00    0.619E+00
DAV:   2    -0.950472852110E+03   -0.43220E+00   -0.55540E+00  4848   0.277E+00    0.215E+01
DAV:   3    -0.950015308119E+03    0.45754E+00   -0.20742E+00  4800   0.171E+00    0.669E+00
DAV:   4    -0.950070531110E+03   -0.55223E-01   -0.22261E-01  4704   0.662E-01    0.102E+01
DAV:   5    -0.950070302051E+03    0.22906E-03   -0.41857E-02  4800   0.350E-01    0.995E+00
DAV:   6    -0.950084623880E+03   -0.14322E-01   -0.86978E-02  4944   0.313E-01    0.918E+00
DAV:   7    -0.950073365178E+03    0.11259E-01   -0.23123E-02  4704   0.223E-01    0.764E+00
DAV:   8    -0.950060313922E+03    0.13051E-01   -0.12816E-01  4272   0.546E-01    0.284E+00
DAV:   9    -0.950054775522E+03    0.55384E-02   -0.13583E-01  4512   0.487E-01    0.420E+00
DAV:  10    -0.950055818355E+03   -0.10428E-02   -0.85633E-02  4656   0.389E-01    0.166E+00
DAV:  11    -0.950060833249E+03   -0.50149E-02   -0.55610E-02  4560   0.318E-01    0.221E+00
DAV:  12    -0.950063637721E+03   -0.28045E-02   -0.24300E-02  4608   0.241E-01    0.111E+00
DAV:  13    -0.950067694348E+03   -0.40566E-02   -0.10861E-02  4368   0.160E-01    0.738E-01
DAV:  14    -0.950069348121E+03   -0.16538E-02   -0.65353E-03  4704   0.115E-01    0.629E-01
DAV:  15    -0.950071245924E+03   -0.18978E-02   -0.32456E-03  4560   0.822E-02    0.127E+00
DAV:  16    -0.950072041407E+03   -0.79548E-03   -0.19713E-03  4368   0.671E-02    0.533E-01
DAV:  17    -0.950072749397E+03   -0.70799E-03   -0.14327E-03  4176   0.484E-02    0.429E-01
DAV:  18    -0.950073239688E+03   -0.49029E-03   -0.75312E-04  4416   0.368E-02    0.215E-01
DAV:  19    -0.950073585416E+03   -0.34573E-03   -0.30188E-04  4176   0.244E-02    0.282E-01
DAV:  20    -0.950074059671E+03   -0.47426E-03   -0.66914E-04  4176   0.306E-02    0.259E-01
DAV:  21    -0.950074412152E+03   -0.35248E-03   -0.84001E-04  4176   0.331E-02    0.180E-01
DAV:  22    -0.950074614963E+03   -0.20281E-03   -0.81081E-04  4128   0.316E-02    0.178E-01
DAV:  23    -0.950074644790E+03   -0.29827E-04   -0.94396E-04  4032   0.322E-02    0.230E-01
DAV:  24    -0.950074613262E+03    0.31529E-04   -0.73606E-04  4176   0.284E-02    0.234E-01
DAV:  25    -0.950074586221E+03    0.27041E-04   -0.66029E-04  4128   0.250E-02    0.197E-01
DAV:  26    -0.950074582536E+03    0.36848E-05   -0.38689E-04  4320   0.211E-02    0.137E-01
DAV:  27    -0.950074499493E+03    0.83043E-04   -0.94460E-04  4032   0.298E-02    0.194E-01
DAV:  28    -0.950074247102E+03    0.25239E-03   -0.25016E-03  4080   0.489E-02    0.208E-01
DAV:  29    -0.950074053456E+03    0.19365E-03   -0.25239E-03  4080   0.496E-02    0.144E-01
DAV:  30    -0.950074256324E+03   -0.20287E-03   -0.98498E-04  4320   0.330E-02    0.110E-01
DAV:  31    -0.950074424297E+03   -0.16797E-03   -0.65934E-04  4176   0.260E-02    0.777E-02
DAV:  32    -0.950074839244E+03   -0.41495E-03   -0.52064E-04  4128   0.233E-02    0.107E-01
DAV:  33    -0.950075201794E+03   -0.36255E-03   -0.18339E-03  3840   0.427E-02    0.937E-02
DAV:  34    -0.950076010522E+03   -0.80873E-03   -0.74628E-04  4464   0.288E-02    0.100E-01
DAV:  35    -0.950076415400E+03   -0.40488E-03   -0.33995E-04  4224   0.195E-02    0.502E-02
DAV:  36    -0.950076865911E+03   -0.45051E-03   -0.80730E-05  4032   0.121E-02    0.458E-02
DAV:  37    -0.950076979177E+03   -0.11327E-03   -0.45309E-05  4416   0.780E-03    0.285E-02
DAV:  38    -0.950077200433E+03   -0.22126E-03   -0.34177E-05  3984   0.629E-03    0.266E-02
DAV:  39    -0.950077400658E+03   -0.20022E-03   -0.24180E-05  4080   0.590E-03    0.362E-02
DAV:  40    -0.950077631664E+03   -0.23101E-03   -0.68587E-05  4080   0.847E-03    0.173E-02
DAV:  41    -0.950077757932E+03   -0.12627E-03   -0.39260E-05  4320   0.691E-03    0.160E-02
DAV:  42    -0.950077862197E+03   -0.10427E-03   -0.21403E-05  4032   0.453E-03    0.890E-03
DAV:  43    -0.950077937338E+03   -0.75141E-04   -0.13536E-05  3600   0.393E-03    0.877E-03
DAV:  44    -0.950077984163E+03   -0.46825E-04   -0.27631E-06  2832   0.222E-03    0.634E-03
DAV:  45    -0.950078014564E+03   -0.30401E-04   -0.91160E-07  2256   0.144E-03    0.681E-03
DAV:  46    -0.950078035892E+03   -0.21328E-04   -0.62094E-07  1968   0.120E-03    0.343E-03
DAV:  47    -0.950078055430E+03   -0.19538E-04   -0.57531E-07  1968   0.123E-03    0.462E-03
DAV:  48    -0.950078066878E+03   -0.11448E-04   -0.29606E-07  1728   0.102E-03    0.251E-03
DAV:  49    -0.950078076070E+03   -0.91917E-05   -0.14873E-07  1824   0.661E-04    0.274E-03
DAV:  50    -0.950078085775E+03   -0.97055E-05   -0.10305E-07  1728   0.547E-04    0.170E-03
DAV:  51    -0.950078096592E+03   -0.10816E-04   -0.10282E-07  1776   0.495E-04    0.153E-03
DAV:  52    -0.950078105432E+03   -0.88409E-05   -0.99409E-08  1728   0.545E-04    0.100E-03
DAV:  53    -0.950078117846E+03   -0.12413E-04   -0.13623E-07  1776   0.451E-04    0.146E-03
DAV:  54    -0.950078119721E+03   -0.18751E-05   -0.51003E-08  1728   0.452E-04    0.119E-03
DAV:  55    -0.950078124929E+03   -0.52084E-05   -0.52202E-08  1728   0.285E-04    0.925E-04
DAV:  56    -0.950078129298E+03   -0.43684E-05   -0.42167E-08  1728   0.363E-04    0.872E-04
DAV:  57    -0.950078135798E+03   -0.64998E-05   -0.74206E-08  1776   0.296E-04    0.777E-04
DAV:  58    -0.950078138809E+03   -0.30118E-05   -0.39697E-08  1728   0.358E-04    0.680E-04
DAV:  59    -0.950078141342E+03   -0.25326E-05   -0.43008E-08  1728   0.257E-04    0.676E-04
DAV:  60    -0.950078142618E+03   -0.12756E-05   -0.24924E-08  1728   0.298E-04    0.629E-04
DAV:  61    -0.950078144166E+03   -0.15483E-05   -0.32916E-08  1728   0.214E-04    0.655E-04
DAV:  62    -0.950078144814E+03   -0.64765E-06   -0.20739E-08  1728   0.277E-04
   5 F= -.95007814E+03 E0= -.95003036E+03  d E =-.154195E+03  mag=    18.4306
 curvature:  -0.23 expect dE=-0.454E+01 dE for cont linesearch -0.745E-02
 trial: gam= 0.35883 g(F)=  0.193E+02 g(S)=  0.000E+00 ort = 0.126E+01 (trialstep = 0.913E+00)
 search vector abs. value=  0.267E+02
 bond charge predicted
       N       E                     dE             d eps       ncg     rms          rms(c)
DAV:   1    -0.936100187819E+03    0.13978E+02   -0.52782E+03  3072   0.868E+01    0.448E+01
DAV:   2    -0.972334304295E+03   -0.36234E+02   -0.39786E+02  4560   0.318E+01    0.141E+02
DAV:   3    -0.958639874610E+03    0.13694E+02   -0.59961E+01  4560   0.107E+01    0.787E+01
DAV:   4    -0.957954007766E+03    0.68587E+00   -0.28608E+01  5328   0.517E+00    0.843E+01
DAV:   5    -0.956945473600E+03    0.10085E+01   -0.20193E+01  4848   0.446E+00    0.568E+01
DAV:   6    -0.955321529908E+03    0.16239E+01   -0.32907E+01  5088   0.529E+00    0.491E+01
DAV:   7    -0.955766337472E+03   -0.44481E+00   -0.94799E+00  4416   0.266E+00    0.420E+01
DAV:   8    -0.956243740551E+03   -0.47740E+00   -0.13357E+01  4512   0.295E+00    0.442E+01
DAV:   9    -0.957233907909E+03   -0.99017E+00   -0.69048E+00  4128   0.294E+00    0.398E+01
DAV:  10    -0.957407582388E+03   -0.17367E+00   -0.84327E+00  5088   0.336E+00    0.365E+01
DAV:  11    -0.956801828713E+03    0.60575E+00   -0.61803E+00  4992   0.292E+00    0.286E+01
DAV:  12    -0.956941718477E+03   -0.13989E+00   -0.10970E+00  4320   0.142E+00    0.254E+01
DAV:  13    -0.957118792376E+03   -0.17707E+00   -0.21902E+00  4800   0.133E+00    0.260E+01
DAV:  14    -0.957051063419E+03    0.67729E-01   -0.96448E-01  4848   0.973E-01    0.229E+01
DAV:  15    -0.957157802136E+03   -0.10674E+00   -0.71516E-01  4608   0.106E+00    0.211E+01
DAV:  16    -0.957249099494E+03   -0.91297E-01   -0.56056E-01  4608   0.112E+00    0.191E+01
DAV:  17    -0.957262166898E+03   -0.13067E-01   -0.42648E-01  4656   0.914E-01    0.144E+01
DAV:  18    -0.957306065296E+03   -0.43898E-01   -0.10082E-01  4224   0.477E-01    0.130E+01
DAV:  19    -0.957312603402E+03   -0.65381E-02   -0.20944E-02  4368   0.221E-01    0.128E+01
DAV:  20    -0.957344922021E+03   -0.32319E-01   -0.30834E-02  4848   0.233E-01    0.123E+01
DAV:  21    -0.957369796938E+03   -0.24875E-01   -0.22524E-02  4416   0.204E-01    0.116E+01
DAV:  22    -0.957400273355E+03   -0.30476E-01   -0.91490E-02  4608   0.515E-01    0.101E+01
DAV:  23    -0.957413476060E+03   -0.13203E-01   -0.12675E-01  4608   0.613E-01    0.794E+00
DAV:  24    -0.957438153261E+03   -0.24677E-01   -0.66709E-02  4320   0.411E-01    0.715E+00
DAV:  25    -0.957478684074E+03   -0.40531E-01   -0.51812E-02  4512   0.361E-01    0.613E+00
DAV:  26    -0.957529111072E+03   -0.50427E-01   -0.44014E-02  4656   0.340E-01    0.506E+00
DAV:  27    -0.957565015791E+03   -0.35905E-01   -0.27382E-02  4848   0.264E-01    0.412E+00
DAV:  28    -0.957587972843E+03   -0.22957E-01   -0.10717E-02  4176   0.157E-01    0.364E+00
DAV:  29    -0.957600154866E+03   -0.12182E-01   -0.48648E-03  4512   0.994E-02    0.336E+00
DAV:  30    -0.957621784120E+03   -0.21629E-01   -0.11232E-02  4512   0.185E-01    0.290E+00
DAV:  31    -0.957621264140E+03    0.51998E-03   -0.29444E-03  3888   0.760E-02    0.287E+00
DAV:  32    -0.957622178493E+03   -0.91435E-03   -0.14121E-03  5136   0.514E-02    0.281E+00
DAV:  33    -0.957625657424E+03   -0.34789E-02   -0.77292E-04  4416   0.420E-02    0.282E+00
DAV:  34    -0.957627800928E+03   -0.21435E-02   -0.72989E-04  4368   0.353E-02    0.277E+00
DAV:  35    -0.957636502051E+03   -0.87011E-02   -0.45470E-03  4032   0.101E-01    0.257E+00
DAV:  36    -0.957667131953E+03   -0.30630E-01   -0.24955E-02  3936   0.198E-01    0.261E+00
DAV:  37    -0.957675287679E+03   -0.81557E-02   -0.28544E-02  4368   0.212E-01    0.183E+00
DAV:  38    -0.957695301223E+03   -0.20014E-01   -0.13406E-02  3936   0.173E-01    0.160E+00
DAV:  39    -0.957697654782E+03   -0.23536E-02   -0.25270E-03  4368   0.813E-02    0.141E+00
DAV:  40    -0.957702145858E+03   -0.44911E-02   -0.36314E-03  4080   0.752E-02    0.134E+00
DAV:  41    -0.957704015306E+03   -0.18694E-02   -0.17172E-03  4416   0.624E-02    0.118E+00
DAV:  42    -0.957707366552E+03   -0.33512E-02   -0.36467E-03  4080   0.859E-02    0.107E+00
DAV:  43    -0.957708490613E+03   -0.11241E-02   -0.18887E-03  4368   0.673E-02    0.966E-01
DAV:  44    -0.957710644828E+03   -0.21542E-02   -0.30754E-03  4032   0.778E-02    0.898E-01
DAV:  45    -0.957711621631E+03   -0.97680E-03   -0.10271E-03  4704   0.471E-02    0.877E-01
DAV:  46    -0.957712063049E+03   -0.44142E-03   -0.51601E-04  4224   0.327E-02    0.800E-01
DAV:  47    -0.957713145026E+03   -0.10820E-02   -0.62993E-03  4512   0.115E-01    0.690E-01
DAV:  48    -0.957713472782E+03   -0.32776E-03   -0.29776E-03  4032   0.722E-02    0.656E-01
DAV:  49    -0.957713492416E+03   -0.19633E-04   -0.12071E-03  4224   0.570E-02    0.586E-01
DAV:  50    -0.957713498270E+03   -0.58542E-05   -0.72625E-04  4464   0.416E-02    0.425E-01
DAV:  51    -0.957713498977E+03   -0.70730E-06   -0.45075E-04  4416   0.336E-02    0.362E-01
DAV:  52    -0.957713212593E+03    0.28638E-03   -0.32045E-03  4704   0.946E-02    0.437E-01
DAV:  53    -0.957713343427E+03   -0.13083E-03   -0.13517E-03  3888   0.491E-02    0.334E-01
DAV:  54    -0.957713472664E+03   -0.12924E-03   -0.43753E-04  4224   0.320E-02    0.205E-01
DAV:  55    -0.957713634564E+03   -0.16190E-03   -0.30752E-04  4272   0.244E-02    0.133E-01
DAV:  56    -0.957713794520E+03   -0.15996E-03   -0.12763E-04  4416   0.166E-02    0.103E-01
DAV:  57    -0.957713887712E+03   -0.93192E-04   -0.15416E-04  4224   0.160E-02    0.105E-01
DAV:  58    -0.957713992352E+03   -0.10464E-03   -0.68806E-05  4416   0.116E-02    0.591E-02
DAV:  59    -0.957714088704E+03   -0.96352E-04   -0.32086E-05  4080   0.713E-03    0.386E-02
DAV:  60    -0.957714185356E+03   -0.96652E-04   -0.18345E-05  4176   0.604E-03    0.374E-02
DAV:  61    -0.957714257150E+03   -0.71795E-04   -0.10513E-05  3984   0.470E-03    0.227E-02
DAV:  62    -0.957714304703E+03   -0.47553E-04   -0.98042E-06  3696   0.396E-03    0.178E-02
DAV:  63    -0.957714348812E+03   -0.44109E-04   -0.37730E-06  2880   0.299E-03    0.133E-02
DAV:  64    -0.957714395117E+03   -0.46304E-04   -0.19314E-06  2256   0.240E-03    0.959E-03
DAV:  65    -0.957714429702E+03   -0.34585E-04   -0.89277E-07  1920   0.177E-03    0.664E-03
DAV:  66    -0.957714466756E+03   -0.37054E-04   -0.92293E-07  1920   0.156E-03    0.503E-03
DAV:  67    -0.957714491441E+03   -0.24685E-04   -0.59285E-07  1872   0.151E-03    0.391E-03
DAV:  68    -0.957714512266E+03   -0.20825E-04   -0.55818E-07  1872   0.142E-03    0.373E-03
DAV:  69    -0.957714535303E+03   -0.23037E-04   -0.64549E-07  2016   0.136E-03    0.422E-03
DAV:  70    -0.957714553286E+03   -0.17982E-04   -0.49515E-07  1872   0.133E-03    0.329E-03
DAV:  71    -0.957714564000E+03   -0.10714E-04   -0.38056E-07  1872   0.117E-03    0.280E-03
DAV:  72    -0.957714572715E+03   -0.87148E-05   -0.31451E-07  1872   0.109E-03    0.184E-03
DAV:  73    -0.957714578172E+03   -0.54576E-05   -0.24050E-07  1824   0.962E-04    0.157E-03
DAV:  74    -0.957714582454E+03   -0.42814E-05   -0.20736E-07  1824   0.884E-04    0.169E-03
DAV:  75    -0.957714586903E+03   -0.44495E-05   -0.27272E-07  1968   0.860E-04    0.164E-03
DAV:  76    -0.957714588672E+03   -0.17687E-05   -0.17093E-07  1824   0.847E-04    0.113E-03
DAV:  77    -0.957714589136E+03   -0.46392E-06   -0.11282E-07  1728   0.699E-04
   6 F= -.95771459E+03 E0= -.95768734E+03  d E =-.763644E+01  mag=    16.8415
 trial-energy change:   -7.636444  1 .order   -6.396290  -18.057119    5.264538
 step:   0.7495(harm=  0.7067)  dis= 0.26805  next Energy=  -958.178335 (dE=-0.810E+01)
 bond charge predicted
       N       E                     dE             d eps       ncg     rms          rms(c)
DAV:   1    -0.957823141521E+03   -0.10855E+00   -0.17257E+02  2880   0.154E+01    0.990E+00
DAV:   2    -0.958678739972E+03   -0.85560E+00   -0.10775E+01  4464   0.467E+00    0.283E+01
DAV:   3    -0.958319185146E+03    0.35955E+00   -0.14119E+00  4176   0.185E+00    0.144E+01
DAV:   4    -0.958234409249E+03    0.84776E-01   -0.90670E-01  4944   0.121E+00    0.114E+01
DAV:   5    -0.958235554288E+03   -0.11450E-02   -0.65362E-01  4800   0.110E+00    0.109E+01
DAV:   6    -0.958248056313E+03   -0.12502E-01   -0.44836E-01  4608   0.106E+00    0.889E+00
DAV:   7    -0.958192319028E+03    0.55737E-01   -0.61978E-01  4608   0.116E+00    0.666E+00
DAV:   8    -0.958190526230E+03    0.17928E-02   -0.15317E+00  4368   0.960E-01    0.409E+00
DAV:   9    -0.958191558717E+03   -0.10325E-02   -0.26127E-01  4512   0.641E-01    0.357E+00
DAV:  10    -0.958182581296E+03    0.89774E-02   -0.79593E-02  4272   0.394E-01    0.256E+00
DAV:  11    -0.958181889731E+03    0.69157E-03   -0.31692E-02  4368   0.260E-01    0.205E+00
DAV:  12    -0.958182665670E+03   -0.77594E-03   -0.53528E-02  4176   0.209E-01    0.182E+00
DAV:  13    -0.958186690271E+03   -0.40246E-02   -0.18644E-02  4128   0.170E-01    0.205E+00
DAV:  14    -0.958183680794E+03    0.30095E-02   -0.58641E-03  4128   0.950E-02    0.166E+00
DAV:  15    -0.958183279858E+03    0.40094E-03   -0.12835E-02  3984   0.119E-01    0.116E+00
DAV:  16    -0.958184067665E+03   -0.78781E-03   -0.46204E-03  4368   0.106E-01    0.108E+00
DAV:  17    -0.958184807130E+03   -0.73946E-03   -0.44886E-03  4368   0.956E-02    0.899E-01
DAV:  18    -0.958183676330E+03    0.11308E-02   -0.40917E-03  4224   0.926E-02    0.680E-01
DAV:  19    -0.958183700079E+03   -0.23749E-04   -0.47671E-03  4128   0.799E-02    0.598E-01
DAV:  20    -0.958184478954E+03   -0.77888E-03   -0.13105E-03  3984   0.533E-02    0.571E-01
DAV:  21    -0.958185121506E+03   -0.64255E-03   -0.59708E-04  4272   0.395E-02    0.501E-01
DAV:  22    -0.958186188037E+03   -0.10665E-02   -0.93389E-04  4272   0.465E-02    0.352E-01
DAV:  23    -0.958187611913E+03   -0.14239E-02   -0.22656E-03  4080   0.549E-02    0.333E-01
DAV:  24    -0.958187785226E+03   -0.17331E-03   -0.43993E-04  3648   0.315E-02    0.264E-01
DAV:  25    -0.958187858047E+03   -0.72820E-04   -0.29557E-04  4128   0.213E-02    0.196E-01
DAV:  26    -0.958188200599E+03   -0.34255E-03   -0.13516E-04  4224   0.150E-02    0.192E-01
DAV:  27    -0.958188622395E+03   -0.42180E-03   -0.14310E-04  3888   0.142E-02    0.184E-01
DAV:  28    -0.958189130817E+03   -0.50842E-03   -0.22068E-04  3840   0.182E-02    0.104E-01
DAV:  29    -0.958189661070E+03   -0.53025E-03   -0.21549E-04  4080   0.173E-02    0.102E-01
DAV:  30    -0.958189901885E+03   -0.24082E-03   -0.73228E-05  3984   0.114E-02    0.763E-02
DAV:  31    -0.958190118526E+03   -0.21664E-03   -0.48002E-05  3984   0.875E-03    0.532E-02
DAV:  32    -0.958190253359E+03   -0.13483E-03   -0.17589E-05  4032   0.565E-03    0.532E-02
DAV:  33    -0.958190361661E+03   -0.10830E-03   -0.79300E-06  3456   0.382E-03    0.557E-02
DAV:  34    -0.958190505046E+03   -0.14338E-03   -0.14662E-05  3744   0.468E-03    0.573E-02
DAV:  35    -0.958190628243E+03   -0.12320E-03   -0.18940E-05  3744   0.518E-03    0.564E-02
DAV:  36    -0.958190757351E+03   -0.12911E-03   -0.66822E-05  3648   0.960E-03    0.480E-02
DAV:  37    -0.958190772719E+03   -0.15368E-04   -0.47517E-05  4464   0.807E-03    0.294E-02
DAV:  38    -0.958190784394E+03   -0.11675E-04   -0.10719E-05  3936   0.439E-03    0.139E-02
DAV:  39    -0.958190783189E+03    0.12048E-05   -0.11248E-05  3264   0.417E-03    0.114E-02
DAV:  40    -0.958190763001E+03    0.20188E-04   -0.92139E-06  3216   0.341E-03    0.536E-03
DAV:  41    -0.958190752164E+03    0.10837E-04   -0.33140E-06  2784   0.221E-03    0.484E-03
DAV:  42    -0.958190743961E+03    0.82035E-05   -0.24739E-06  2448   0.192E-03    0.553E-03
DAV:  43    -0.958190743782E+03    0.17894E-06   -0.16844E-06  2592   0.164E-03
   7 F= -.95819074E+03 E0= -.95816278E+03  d E =-.811260E+01  mag=    16.9739
 curvature:  -0.46 expect dE=-0.125E+02 dE for cont linesearch -0.266E-03
 trial: gam= 1.15551 g(F)=  0.273E+02 g(S)=  0.000E+00 ort =-0.125E+00 (trialstep = 0.375E+00)
 search vector abs. value=  0.627E+02
 bond charge predicted
       N       E                     dE             d eps       ncg     rms          rms(c)
DAV:   1    -0.954470517668E+03    0.37202E+01   -0.22171E+03  2928   0.572E+01    0.235E+01
DAV:   2    -0.963671045272E+03   -0.92005E+01   -0.10346E+02  4416   0.161E+01    0.291E+01
DAV:   3    -0.963054654818E+03    0.61639E+00   -0.82896E+00  5040   0.511E+00    0.194E+01
DAV:   4    -0.962971685858E+03    0.82969E-01   -0.28430E+00  5040   0.273E+00    0.162E+01
DAV:   5    -0.962844322686E+03    0.12736E+00   -0.31982E+00  5088   0.252E+00    0.103E+01
DAV:   6    -0.963239348125E+03   -0.39503E+00   -0.68507E+00  4512   0.274E+00    0.213E+01
DAV:   7    -0.962720683674E+03    0.51866E+00   -0.81781E+00  4512   0.185E+00    0.856E+00
DAV:   8    -0.962788404982E+03   -0.67721E-01   -0.11998E+00  4416   0.144E+00    0.714E+00
DAV:   9    -0.962751220097E+03    0.37185E-01   -0.37271E-01  4704   0.975E-01    0.845E+00
DAV:  10    -0.962729415393E+03    0.21805E-01   -0.10816E-01  4752   0.527E-01    0.599E+00
DAV:  11    -0.962717601398E+03    0.11814E-01   -0.11306E-01  4512   0.457E-01    0.321E+00
DAV:  12    -0.962709726420E+03    0.78750E-02   -0.42070E-02  4464   0.328E-01    0.189E+00
DAV:  13    -0.962710060536E+03   -0.33412E-03   -0.18908E-02  4464   0.228E-01    0.171E+00
DAV:  14    -0.962709255564E+03    0.80497E-03   -0.94192E-03  4800   0.153E-01    0.227E+00
DAV:  15    -0.962708650272E+03    0.60529E-03   -0.47684E-03  4656   0.117E-01    0.933E-01
DAV:  16    -0.962709828482E+03   -0.11782E-02   -0.49684E-03  4368   0.102E-01    0.601E-01
DAV:  17    -0.962712087654E+03   -0.22592E-02   -0.47437E-03  4320   0.977E-02    0.392E-01
DAV:  18    -0.962714372871E+03   -0.22852E-02   -0.25159E-03  4080   0.620E-02    0.522E-01
DAV:  19    -0.962714375163E+03   -0.22917E-05   -0.36803E-04  4368   0.292E-02    0.501E-01
DAV:  20    -0.962714794910E+03   -0.41975E-03   -0.43540E-04  4560   0.245E-02    0.399E-01
DAV:  21    -0.962715323419E+03   -0.52851E-03   -0.27504E-04  4368   0.270E-02    0.293E-01
DAV:  22    -0.962718602966E+03   -0.32795E-02   -0.11848E-03  3840   0.510E-02    0.312E-01
DAV:  23    -0.962720934087E+03   -0.23311E-02   -0.85791E-04  4512   0.476E-02    0.262E-01
DAV:  24    -0.962722505575E+03   -0.15715E-02   -0.69286E-04  4224   0.360E-02    0.164E-01
DAV:  25    -0.962723221387E+03   -0.71581E-03   -0.19759E-04  4416   0.221E-02    0.155E-01
DAV:  26    -0.962723681199E+03   -0.45981E-03   -0.81841E-05  4224   0.136E-02    0.118E-01
DAV:  27    -0.962724317546E+03   -0.63635E-03   -0.88797E-05  3936   0.132E-02    0.752E-02
DAV:  28    -0.962724853427E+03   -0.53588E-03   -0.73363E-05  4080   0.130E-02    0.449E-02
DAV:  29    -0.962725271896E+03   -0.41847E-03   -0.51838E-05  3936   0.993E-03    0.691E-02
DAV:  30    -0.962725560686E+03   -0.28879E-03   -0.24799E-05  4176   0.684E-03    0.477E-02
DAV:  31    -0.962725792851E+03   -0.23217E-03   -0.14937E-05  3936   0.466E-03    0.416E-02
DAV:  32    -0.962725970350E+03   -0.17750E-03   -0.10965E-05  3696   0.389E-03    0.401E-02
DAV:  33    -0.962726191006E+03   -0.22066E-03   -0.13308E-05  3552   0.364E-03    0.408E-02
DAV:  34    -0.962726419770E+03   -0.22876E-03   -0.17563E-05  3504   0.388E-03    0.307E-02
DAV:  35    -0.962726609132E+03   -0.18936E-03   -0.18737E-05  3744   0.381E-03    0.189E-02
DAV:  36    -0.962726746656E+03   -0.13752E-03   -0.18101E-05  3504   0.359E-03    0.134E-02
DAV:  37    -0.962726795216E+03   -0.48560E-04   -0.83580E-06  3168   0.285E-03    0.138E-02
DAV:  38    -0.962726805403E+03   -0.10187E-04   -0.56494E-06  2880   0.284E-03    0.937E-03
DAV:  39    -0.962726830212E+03   -0.24809E-04   -0.43587E-06  2976   0.234E-03    0.986E-03
DAV:  40    -0.962726839107E+03   -0.88954E-05   -0.19847E-06  2352   0.181E-03    0.718E-03
DAV:  41    -0.962726847351E+03   -0.82438E-05   -0.26168E-06  2496   0.166E-03    0.687E-03
DAV:  42    -0.962726844702E+03    0.26494E-05   -0.36210E-06  2592   0.185E-03    0.359E-03
DAV:  43    -0.962726841702E+03    0.30000E-05   -0.13103E-06  2208   0.134E-03    0.298E-03
DAV:  44    -0.962726840712E+03    0.98979E-06   -0.54351E-07  1776   0.106E-03
   8 F= -.96272684E+03 E0= -.96270238E+03  d E =-.453610E+01  mag=    16.5859
 trial-energy change:   -4.536097  1 .order   -4.691595  -10.192154    0.808964
 step:   0.3451(harm=  0.3474)  dis= 0.16836  next Energy=  -962.759181 (dE=-0.457E+01)
 bond charge predicted
       N       E                     dE             d eps       ncg     rms          rms(c)
DAV:   1    -0.962722384035E+03    0.44577E-02   -0.14368E+01  2880   0.461E+00    0.141E+00
DAV:   2    -0.962769231362E+03   -0.46847E-01   -0.45971E-01  4128   0.111E+00    0.606E+00
DAV:   3    -0.962760770665E+03    0.84607E-02   -0.47538E-02  4752   0.385E-01    0.171E+00
DAV:   4    -0.962760298824E+03    0.47184E-03   -0.13034E-02  4992   0.164E-01    0.162E+00
DAV:   5    -0.962760062203E+03    0.23662E-03   -0.43725E-03  4992   0.102E-01    0.140E+00
DAV:   6    -0.962760481310E+03   -0.41911E-03   -0.20631E-02  4512   0.191E-01    0.103E+00
DAV:   7    -0.962759295793E+03    0.11855E-02   -0.25874E-02  4896   0.193E-01    0.807E-01
DAV:   8    -0.962758560615E+03    0.73518E-03   -0.47478E-03  4608   0.114E-01    0.249E-01
DAV:   9    -0.962758694100E+03   -0.13348E-03   -0.13223E-03  4368   0.550E-02    0.225E-01
DAV:  10    -0.962758711251E+03   -0.17151E-04   -0.29495E-04  4800   0.267E-02    0.158E-01
DAV:  11    -0.962758747631E+03   -0.36380E-04   -0.16854E-04  4896   0.190E-02    0.621E-02
DAV:  12    -0.962758813330E+03   -0.65699E-04   -0.98876E-05  4992   0.145E-02    0.108E-01
DAV:  13    -0.962758842699E+03   -0.29369E-04   -0.51875E-05  4704   0.108E-02    0.304E-02
DAV:  14    -0.962758880936E+03   -0.38237E-04   -0.19774E-05  4608   0.652E-03    0.486E-02
DAV:  15    -0.962758916375E+03   -0.35439E-04   -0.63449E-06  3696   0.381E-03    0.326E-02
DAV:  16    -0.962758940549E+03   -0.24174E-04   -0.30781E-06  2832   0.280E-03    0.138E-02
DAV:  17    -0.962758963108E+03   -0.22559E-04   -0.12216E-06  1920   0.225E-03    0.804E-03
DAV:  18    -0.962758987877E+03   -0.24769E-04   -0.97049E-07  1968   0.187E-03    0.757E-03
DAV:  19    -0.962759015041E+03   -0.27164E-04   -0.76991E-07  1920   0.152E-03    0.654E-03
DAV:  20    -0.962759037930E+03   -0.22889E-04   -0.69357E-07  1920   0.148E-03    0.587E-03
DAV:  21    -0.962759058584E+03   -0.20654E-04   -0.53524E-07  1920   0.133E-03    0.416E-03
DAV:  22    -0.962759074267E+03   -0.15683E-04   -0.44606E-07  1872   0.126E-03    0.294E-03
DAV:  23    -0.962759085858E+03   -0.11591E-04   -0.40811E-07  1824   0.113E-03    0.306E-03
DAV:  24    -0.962759097483E+03   -0.11625E-04   -0.32138E-07  1920   0.106E-03    0.210E-03
DAV:  25    -0.962759109533E+03   -0.12050E-04   -0.33559E-07  1872   0.977E-04    0.166E-03
DAV:  26    -0.962759118082E+03   -0.85487E-05   -0.29269E-07  1824   0.100E-03    0.132E-03
DAV:  27    -0.962759124918E+03   -0.68359E-05   -0.30755E-07  1920   0.894E-04    0.115E-03
DAV:  28    -0.962759128767E+03   -0.38493E-05   -0.19409E-07  1776   0.847E-04    0.902E-04
DAV:  29    -0.962759131275E+03   -0.25078E-05   -0.15910E-07  1728   0.729E-04    0.857E-04
DAV:  30    -0.962759132503E+03   -0.12281E-05   -0.11069E-07  1728   0.702E-04    0.763E-04
DAV:  31    -0.962759133727E+03   -0.12245E-05   -0.10198E-07  1776   0.577E-04    0.698E-04
DAV:  32    -0.962759134384E+03   -0.65708E-06   -0.73904E-08  1728   0.596E-04
   9 F= -.96275913E+03 E0= -.96273446E+03  d E =-.456839E+01  mag=    16.6025
 curvature:  -0.40 expect dE=-0.385E+01 dE for cont linesearch -0.823E-07
 trial: gam= 0.18903 g(F)=  0.967E+01 g(S)=  0.000E+00 ort = 0.360E-02 (trialstep = 0.369E+00)
 search vector abs. value=  0.119E+02
 bond charge predicted
       N       E                     dE             d eps       ncg     rms          rms(c)
DAV:   1    -0.963797166703E+03   -0.10380E+01   -0.39244E+02  2880   0.233E+01    0.114E+01
DAV:   2    -0.965331713032E+03   -0.15345E+01   -0.17455E+01  4272   0.677E+00    0.189E+01
DAV:   3    -0.964878713045E+03    0.45300E+00   -0.22709E+00  4560   0.258E+00    0.116E+01
DAV:   4    -0.964864845189E+03    0.13868E-01   -0.10026E+00  5184   0.137E+00    0.108E+01
DAV:   5    -0.964850846998E+03    0.13998E-01   -0.21688E+00  4896   0.148E+00    0.735E+00
DAV:   6    -0.964817663163E+03    0.33184E-01   -0.80472E-01  4368   0.135E+00    0.451E+00
DAV:   7    -0.964794260140E+03    0.23403E-01   -0.39753E-01  4368   0.114E+00    0.452E+00
DAV:   8    -0.964787604568E+03    0.66556E-02   -0.14418E-01  4704   0.677E-01    0.276E+00
DAV:   9    -0.964782340211E+03    0.52644E-02   -0.11639E-01  4752   0.515E-01    0.248E+00
DAV:  10    -0.964781220567E+03    0.11196E-02   -0.31931E-02  3984   0.264E-01    0.193E+00
DAV:  11    -0.964781319440E+03   -0.98872E-04   -0.11961E-02  4896   0.149E-01    0.123E+00
DAV:  12    -0.964782200865E+03   -0.88143E-03   -0.69845E-03  4512   0.133E-01    0.524E-01
DAV:  13    -0.964783450711E+03   -0.12498E-02   -0.49892E-03  4272   0.110E-01    0.314E-01
DAV:  14    -0.964784353936E+03   -0.90323E-03   -0.30607E-03  4656   0.823E-02    0.601E-01
DAV:  15    -0.964784819436E+03   -0.46550E-03   -0.16331E-03  5424   0.637E-02    0.356E-01
DAV:  16    -0.964785398937E+03   -0.57950E-03   -0.69893E-04  4176   0.403E-02    0.276E-01
DAV:  17    -0.964785677311E+03   -0.27837E-03   -0.49558E-04  4272   0.322E-02    0.102E-01
DAV:  18    -0.964786019661E+03   -0.34235E-03   -0.19063E-04  4224   0.199E-02    0.994E-02
DAV:  19    -0.964786320341E+03   -0.30068E-03   -0.95838E-05  4512   0.148E-02    0.820E-02
DAV:  20    -0.964786585431E+03   -0.26509E-03   -0.66527E-05  4224   0.117E-02    0.604E-02
DAV:  21    -0.964786851949E+03   -0.26652E-03   -0.51544E-05  4560   0.915E-03    0.527E-02
DAV:  22    -0.964787000200E+03   -0.14825E-03   -0.24837E-05  4224   0.651E-03    0.231E-02
DAV:  23    -0.964787062885E+03   -0.62685E-04   -0.10941E-05  3984   0.489E-03    0.187E-02
DAV:  24    -0.964787141169E+03   -0.78284E-04   -0.79510E-06  3744   0.380E-03    0.167E-02
DAV:  25    -0.964787262864E+03   -0.12169E-03   -0.10870E-05  3408   0.330E-03    0.161E-02
DAV:  26    -0.964787366376E+03   -0.10351E-03   -0.97031E-06  3408   0.327E-03    0.113E-02
DAV:  27    -0.964787494534E+03   -0.12816E-03   -0.19733E-05  3312   0.372E-03    0.107E-02
DAV:  28    -0.964787558998E+03   -0.64465E-04   -0.11620E-05  3264   0.300E-03    0.917E-03
DAV:  29    -0.964787595503E+03   -0.36505E-04   -0.77959E-06  3216   0.241E-03    0.550E-03
DAV:  30    -0.964787612868E+03   -0.17365E-04   -0.61019E-06  2928   0.213E-03    0.513E-03
DAV:  31    -0.964787611754E+03    0.11139E-05   -0.47927E-06  2928   0.195E-03    0.448E-03
DAV:  32    -0.964787609102E+03    0.26525E-05   -0.13717E-06  2160   0.133E-03    0.343E-03
DAV:  33    -0.964787609575E+03   -0.47324E-06   -0.48076E-07  1776   0.110E-03
  10 F= -.96478761E+03 E0= -.96476360E+03  d E =-.202848E+01  mag=    16.6798
 trial-energy change:   -2.028475  1 .order   -2.066513   -3.567620   -0.565405
 step:   0.4455(harm=  0.4385)  dis= 0.06586  next Energy=  -964.845892 (dE=-0.209E+01)
 bond charge predicted
       N       E                     dE             d eps       ncg     rms          rms(c)
DAV:   1    -0.964805322105E+03   -0.17713E-01   -0.16851E+01  2880   0.482E+00    0.230E+00
DAV:   2    -0.964885437976E+03   -0.80116E-01   -0.89313E-01  4272   0.145E+00    0.804E+00
DAV:   3    -0.964848081654E+03    0.37356E-01   -0.21859E-01  4176   0.640E-01    0.232E+00
DAV:   4    -0.964846457002E+03    0.16247E-02   -0.38414E-02  5184   0.271E-01    0.200E+00
DAV:   5    -0.964849000656E+03   -0.25437E-02   -0.21863E-02  4560   0.205E-01    0.206E+00
DAV:   6    -0.964850036329E+03   -0.10357E-02   -0.71350E-02  4800   0.324E-01    0.261E+00
DAV:   7    -0.964844888844E+03    0.51475E-02   -0.35306E-02  4992   0.276E-01    0.162E+00
DAV:   8    -0.964844366282E+03    0.52256E-03   -0.12266E-02  4368   0.165E-01    0.767E-01
DAV:   9    -0.964844535402E+03   -0.16912E-03   -0.34220E-03  4704   0.920E-02    0.570E-01
DAV:  10    -0.964844597095E+03   -0.61693E-04   -0.84510E-04  4368   0.455E-02    0.157E-01
DAV:  11    -0.964844690068E+03   -0.92974E-04   -0.54877E-04  4704   0.351E-02    0.135E-01
DAV:  12    -0.964844801726E+03   -0.11166E-03   -0.21114E-04  4128   0.235E-02    0.246E-01
DAV:  13    -0.964844866455E+03   -0.64729E-04   -0.23413E-04  4656   0.198E-02    0.213E-01
DAV:  14    -0.964844899497E+03   -0.33042E-04   -0.12539E-04  4704   0.164E-02    0.144E-01
DAV:  15    -0.964844921240E+03   -0.21743E-04   -0.61674E-05  4560   0.122E-02    0.499E-02
DAV:  16    -0.964844973265E+03   -0.52025E-04   -0.27285E-05  4416   0.759E-03    0.234E-02
DAV:  17    -0.964845000728E+03   -0.27463E-04   -0.61371E-06  3744   0.403E-03    0.203E-02
DAV:  18    -0.964845040712E+03   -0.39983E-04   -0.53960E-06  3216   0.298E-03    0.190E-02
DAV:  19    -0.964845078695E+03   -0.37984E-04   -0.24351E-06  2352   0.256E-03    0.116E-02
DAV:  20    -0.964845097280E+03   -0.18584E-04   -0.10904E-06  2016   0.200E-03    0.121E-02
DAV:  21    -0.964845116752E+03   -0.19472E-04   -0.85372E-07  2016   0.152E-03    0.103E-02
DAV:  22    -0.964845136228E+03   -0.19476E-04   -0.86372E-07  2064   0.149E-03    0.901E-03
DAV:  23    -0.964845150146E+03   -0.13918E-04   -0.57431E-07  2016   0.133E-03    0.537E-03
DAV:  24    -0.964845166420E+03   -0.16273E-04   -0.81783E-07  2016   0.128E-03    0.291E-03
DAV:  25    -0.964845177899E+03   -0.11480E-04   -0.47402E-07  2016   0.121E-03    0.181E-03
DAV:  26    -0.964845188362E+03   -0.10463E-04   -0.47762E-07  1968   0.108E-03    0.224E-03
DAV:  27    -0.964845194882E+03   -0.65203E-05   -0.35290E-07  1968   0.108E-03    0.180E-03
DAV:  28    -0.964845199614E+03   -0.47317E-05   -0.28801E-07  1872   0.912E-04    0.102E-03
DAV:  29    -0.964845203666E+03   -0.40518E-05   -0.23258E-07  1872   0.878E-04    0.112E-03
DAV:  30    -0.964845208485E+03   -0.48192E-05   -0.28655E-07  1968   0.803E-04    0.994E-04
DAV:  31    -0.964845210842E+03   -0.23568E-05   -0.18598E-07  1824   0.841E-04    0.830E-04
DAV:  32    -0.964845212888E+03   -0.20460E-05   -0.19219E-07  1872   0.677E-04    0.782E-04
DAV:  33    -0.964845213450E+03   -0.56232E-06   -0.97850E-08  1728   0.701E-04
  11 F= -.96484521E+03 E0= -.96482153E+03  d E =-.208608E+01  mag=    16.6779
 curvature:  -0.27 expect dE=-0.166E+01 dE for cont linesearch -0.813E-05
 trial: gam= 0.62955 g(F)=  0.620E+01 g(S)=  0.000E+00 ort =-0.190E-01 (trialstep = 0.384E+00)
 search vector abs. value=  0.109E+02
 bond charge predicted
       N       E                     dE             d eps       ncg     rms          rms(c)
DAV:   1    -0.965306488703E+03   -0.46128E+00   -0.39350E+02  2880   0.244E+01    0.825E+00
DAV:   2    -0.966721431429E+03   -0.14149E+01   -0.15806E+01  4464   0.692E+00    0.138E+01
DAV:   3    -0.966522121732E+03    0.19931E+00   -0.48332E+00  4848   0.240E+00    0.909E+00
DAV:   4    -0.966506253979E+03    0.15868E-01   -0.43211E-01  4896   0.899E-01    0.726E+00
DAV:   5    -0.966674911130E+03   -0.16866E+00   -0.15716E+00  4416   0.140E+00    0.107E+01
DAV:   6    -0.966581862817E+03    0.93048E-01   -0.21245E+00  4656   0.145E+00    0.865E+00
DAV:   7    -0.966469661451E+03    0.11220E+00   -0.49831E-01  4176   0.973E-01    0.556E+00
DAV:   8    -0.966448612350E+03    0.21049E-01   -0.19964E-01  4512   0.782E-01    0.558E+00
DAV:   9    -0.966427760604E+03    0.20852E-01   -0.11262E-01  4272   0.485E-01    0.302E+00
DAV:  10    -0.966421229130E+03    0.65315E-02   -0.47825E-02  5088   0.390E-01    0.155E+00
DAV:  11    -0.966422209316E+03   -0.98019E-03   -0.28699E-02  4752   0.244E-01    0.820E-01
DAV:  12    -0.966424899003E+03   -0.26897E-02   -0.10090E-02  4464   0.158E-01    0.893E-01
DAV:  13    -0.966425254539E+03   -0.35554E-03   -0.45812E-03  4560   0.100E-01    0.598E-01
DAV:  14    -0.966425795208E+03   -0.54067E-03   -0.19652E-03  4464   0.734E-02    0.652E-01
DAV:  15    -0.966427127400E+03   -0.13322E-02   -0.18771E-03  4560   0.700E-02    0.761E-01
DAV:  16    -0.966427977510E+03   -0.85011E-03   -0.20888E-03  4512   0.654E-02    0.391E-01
DAV:  17    -0.966429415093E+03   -0.14376E-02   -0.17190E-03  4224   0.585E-02    0.229E-01
DAV:  18    -0.966430591005E+03   -0.11759E-02   -0.67701E-04  4320   0.377E-02    0.171E-01
DAV:  19    -0.966431522580E+03   -0.93157E-03   -0.44320E-04  4224   0.255E-02    0.962E-02
DAV:  20    -0.966432070405E+03   -0.54782E-03   -0.14607E-04  4704   0.175E-02    0.149E-01
DAV:  21    -0.966432937152E+03   -0.86675E-03   -0.90094E-05  4368   0.137E-02    0.105E-01
DAV:  22    -0.966433967191E+03   -0.10300E-02   -0.11781E-04  4128   0.160E-02    0.100E-01
DAV:  23    -0.966434810976E+03   -0.84379E-03   -0.88454E-05  4368   0.137E-02    0.636E-02
DAV:  24    -0.966435462616E+03   -0.65164E-03   -0.47881E-05  4368   0.100E-02    0.494E-02
DAV:  25    -0.966435887241E+03   -0.42462E-03   -0.19490E-05  4272   0.668E-03    0.497E-02
DAV:  26    -0.966436191034E+03   -0.30379E-03   -0.10589E-05  4176   0.472E-03    0.246E-02
DAV:  27    -0.966436583573E+03   -0.39254E-03   -0.88612E-06  3792   0.373E-03    0.155E-02
DAV:  28    -0.966436848857E+03   -0.26528E-03   -0.46867E-06  3360   0.272E-03    0.772E-03
DAV:  29    -0.966437006541E+03   -0.15768E-03   -0.20735E-06  2496   0.211E-03    0.703E-03
DAV:  30    -0.966437082192E+03   -0.75651E-04   -0.95637E-07  2016   0.157E-03    0.510E-03
DAV:  31    -0.966437214522E+03   -0.13233E-03   -0.17602E-06  2448   0.157E-03    0.498E-03
DAV:  32    -0.966437370243E+03   -0.15572E-03   -0.20601E-06  2688   0.154E-03    0.413E-03
DAV:  33    -0.966437508138E+03   -0.13790E-03   -0.21948E-06  2640   0.150E-03    0.416E-03
DAV:  34    -0.966437608656E+03   -0.10052E-03   -0.17265E-06  2544   0.126E-03    0.384E-03
DAV:  35    -0.966437677380E+03   -0.68724E-04   -0.13840E-06  2400   0.121E-03    0.220E-03
DAV:  36    -0.966437713535E+03   -0.36155E-04   -0.94432E-07  2064   0.115E-03    0.159E-03
DAV:  37    -0.966437725850E+03   -0.12315E-04   -0.54805E-07  1968   0.113E-03    0.197E-03
DAV:  38    -0.966437727898E+03   -0.20476E-05   -0.28445E-07  1776   0.980E-04    0.148E-03
DAV:  39    -0.966437729276E+03   -0.13780E-05   -0.22604E-07  1824   0.799E-04    0.109E-03
[...]
DAV:   7    -0.970748826673E+03   -0.25624E-02   -0.41829E-02  4560   0.338E-01    0.204E+00
DAV:   8    -0.970746264734E+03    0.25619E-02   -0.12621E-02  4848   0.212E-01    0.139E+00
DAV:   9    -0.970745427732E+03    0.83700E-03   -0.55572E-03  4608   0.115E-01    0.306E-01
DAV:  10    -0.970745827679E+03   -0.39995E-03   -0.18523E-03  4656   0.669E-02    0.201E-01
DAV:  11    -0.970746129817E+03   -0.30214E-03   -0.66608E-04  4704   0.429E-02    0.151E-01
DAV:  12    -0.970746355397E+03   -0.22558E-03   -0.26592E-04  4608   0.309E-02    0.181E-01
DAV:  13    -0.970746512495E+03   -0.15710E-03   -0.16083E-04  4944   0.212E-02    0.536E-02
DAV:  14    -0.970746659129E+03   -0.14663E-03   -0.73751E-05  4848   0.126E-02    0.582E-02
DAV:  15    -0.970746768009E+03   -0.10888E-03   -0.23122E-05  5040   0.805E-03    0.288E-02
DAV:  16    -0.970746882100E+03   -0.11409E-03   -0.19723E-05  4368   0.648E-03    0.431E-02
DAV:  17    -0.970746977140E+03   -0.95040E-04   -0.73121E-06  3696   0.442E-03    0.198E-02
DAV:  18    -0.970747037185E+03   -0.60045E-04   -0.27958E-06  3024   0.286E-03    0.987E-03
DAV:  19    -0.970747094454E+03   -0.57269E-04   -0.17768E-06  2592   0.224E-03    0.142E-02
DAV:  20    -0.970747126404E+03   -0.31950E-04   -0.82745E-07  2016   0.195E-03    0.489E-03
DAV:  21    -0.970747172114E+03   -0.45710E-04   -0.14974E-06  2256   0.163E-03    0.690E-03
DAV:  22    -0.970747213453E+03   -0.41339E-04   -0.12478E-06  2208   0.155E-03    0.558E-03
DAV:  23    -0.970747228815E+03   -0.15362E-04   -0.42334E-07  1920   0.124E-03    0.400E-03
DAV:  24    -0.970747251129E+03   -0.22314E-04   -0.66650E-07  1920   0.122E-03    0.179E-03
DAV:  25    -0.970747271143E+03   -0.20013E-04   -0.81659E-07  2016   0.133E-03    0.228E-03
DAV:  26    -0.970747282192E+03   -0.11049E-04   -0.57869E-07  1920   0.124E-03    0.209E-03
DAV:  27    -0.970747287058E+03   -0.48659E-05   -0.39587E-07  1872   0.114E-03    0.169E-03
DAV:  28    -0.970747289677E+03   -0.26195E-05   -0.27185E-07  1776   0.989E-04    0.114E-03
DAV:  29    -0.970747291297E+03   -0.16197E-05   -0.18503E-07  1728   0.864E-04    0.656E-04
DAV:  30    -0.970747292933E+03   -0.16365E-05   -0.14870E-07  1776   0.751E-04    0.604E-04
DAV:  31    -0.970747294080E+03   -0.11462E-05   -0.11510E-07  1728   0.706E-04    0.583E-04
DAV:  32    -0.970747294964E+03   -0.88468E-06   -0.93481E-08  1728   0.627E-04
  24 F= -.97074729E+03 E0= -.97073367E+03  d E =-.302144E+00  mag=    16.0201
 trial-energy change:   -0.302144  1 .order   -0.303373   -0.446814   -0.159933
 step:   0.5382(harm=  0.5302)  dis= 0.05344  next Energy=  -970.793523 (dE=-0.348E+00)
 bond charge predicted
       N       E                     dE             d eps       ncg     rms          rms(c)
DAV:   1    -0.970686721359E+03    0.60573E-01   -0.46594E+01  2880   0.814E+00    0.258E+00
DAV:   2    -0.970816113860E+03   -0.12939E+00   -0.13538E+00  4272   0.186E+00    0.559E+00
DAV:   3    -0.970799882995E+03    0.16231E-01   -0.11605E-01  4368   0.628E-01    0.299E+00
DAV:   4    -0.970794915808E+03    0.49672E-02   -0.35407E-02  4848   0.295E-01    0.129E+00
DAV:   5    -0.970793608882E+03    0.13069E-02   -0.21180E-02  4464   0.230E-01    0.103E+00
DAV:   6    -0.970792518566E+03    0.10903E-02   -0.11053E-02  4992   0.200E-01    0.828E-01
DAV:   7    -0.970793259493E+03   -0.74093E-03   -0.74729E-03  4368   0.136E-01    0.686E-01
DAV:   8    -0.970792561203E+03    0.69829E-03   -0.53553E-03  4896   0.102E-01    0.366E-01
DAV:   9    -0.970792638098E+03   -0.76895E-04   -0.12473E-03  4368   0.551E-02    0.184E-01
DAV:  10    -0.970792800565E+03   -0.16247E-03   -0.78895E-04  4800   0.372E-02    0.179E-01
DAV:  11    -0.970792912173E+03   -0.11161E-03   -0.23035E-04  4464   0.272E-02    0.132E-01
DAV:  12    -0.970792974870E+03   -0.62697E-04   -0.20865E-04  4320   0.196E-02    0.424E-02
DAV:  13    -0.970793072708E+03   -0.97838E-04   -0.70592E-05  4608   0.132E-02    0.382E-02
DAV:  14    -0.970793122007E+03   -0.49298E-04   -0.22640E-05  4704   0.737E-03    0.480E-02
DAV:  15    -0.970793162863E+03   -0.40857E-04   -0.85466E-06  4368   0.509E-03    0.206E-02
DAV:  16    -0.970793207033E+03   -0.44170E-04   -0.40686E-06  3456   0.340E-03    0.730E-03
DAV:  17    -0.970793248136E+03   -0.41103E-04   -0.16004E-06  2400   0.240E-03    0.670E-03
DAV:  18    -0.970793278816E+03   -0.30679E-04   -0.10095E-06  1968   0.187E-03    0.359E-03
DAV:  19    -0.970793298507E+03   -0.19692E-04   -0.65251E-07  1920   0.152E-03    0.264E-03
DAV:  20    -0.970793316537E+03   -0.18030E-04   -0.57021E-07  2016   0.130E-03    0.393E-03
DAV:  21    -0.970793337141E+03   -0.20604E-04   -0.65452E-07  1968   0.128E-03    0.228E-03
DAV:  22    -0.970793355047E+03   -0.17906E-04   -0.76473E-07  2016   0.129E-03    0.174E-03
DAV:  23    -0.970793365283E+03   -0.10236E-04   -0.45866E-07  1920   0.117E-03    0.144E-03
DAV:  24    -0.970793374331E+03   -0.90478E-05   -0.44626E-07  1872   0.104E-03    0.129E-03
DAV:  25    -0.970793379526E+03   -0.51947E-05   -0.33794E-07  1968   0.105E-03    0.127E-03
DAV:  26    -0.970793385647E+03   -0.61214E-05   -0.36833E-07  1824   0.880E-04    0.958E-04
DAV:  27    -0.970793388327E+03   -0.26799E-05   -0.23632E-07  1824   0.958E-04    0.780E-04
DAV:  28    -0.970793389923E+03   -0.15960E-05   -0.17744E-07  1776   0.716E-04    0.807E-04
DAV:  29    -0.970793390836E+03   -0.91373E-06   -0.11343E-07  1728   0.723E-04
  25 F= -.97079339E+03 E0= -.97077913E+03  d E =-.348240E+00  mag=    16.0121
 curvature:  -0.96 expect dE=-0.113E+01 dE for cont linesearch -0.507E-06
 trial: gam= 0.84843 g(F)=  0.117E+01 g(S)=  0.000E+00 ort =-0.159E-02 (trialstep = 0.380E+00)
 search vector abs. value=  0.460E+01
 bond charge predicted
       N       E                     dE             d eps       ncg     rms          rms(c)
DAV:   1    -0.970696857246E+03    0.96533E-01   -0.16877E+02  2880   0.157E+01    0.394E+00
DAV:   2    -0.971130689345E+03   -0.43383E+00   -0.46277E+00  3936   0.341E+00    0.667E+00
DAV:   3    -0.971128033044E+03    0.26563E-02   -0.42986E-01  4704   0.116E+00    0.304E+00
DAV:   4    -0.971117882348E+03    0.10151E-01   -0.11206E-01  4608   0.565E-01    0.285E+00
DAV:   5    -0.971114664147E+03    0.32182E-02   -0.59543E-02  4896   0.353E-01    0.206E+00
DAV:   6    -0.971119057595E+03   -0.43934E-02   -0.46576E-02  4896   0.373E-01    0.302E+00
DAV:   7    -0.971114211808E+03    0.48458E-02   -0.19106E-02  4320   0.251E-01    0.189E+00
DAV:   8    -0.971112958827E+03    0.12530E-02   -0.37864E-02  4560   0.242E-01    0.506E-01
DAV:   9    -0.971113831557E+03   -0.87273E-03   -0.58620E-03  4512   0.126E-01    0.366E-01
DAV:  10    -0.971114014295E+03   -0.18274E-03   -0.16781E-03  4848   0.653E-02    0.261E-01
DAV:  11    -0.971114471475E+03   -0.45718E-03   -0.10020E-03  4368   0.484E-02    0.210E-01
DAV:  12    -0.971114785828E+03   -0.31435E-03   -0.68381E-04  5088   0.380E-02    0.213E-01
DAV:  13    -0.971115087226E+03   -0.30140E-03   -0.25532E-04  4512   0.244E-02    0.175E-01
DAV:  14    -0.971115141730E+03   -0.54504E-04   -0.10782E-04  4176   0.154E-02    0.777E-02
DAV:  15    -0.971115338691E+03   -0.19696E-03   -0.55380E-05  4416   0.114E-02    0.453E-02
DAV:  16    -0.971115528758E+03   -0.19007E-03   -0.27017E-05  5376   0.932E-03    0.451E-02
DAV:  17    -0.971115656259E+03   -0.12750E-03   -0.96305E-06  4176   0.558E-03    0.183E-02
DAV:  18    -0.971115732056E+03   -0.75797E-04   -0.39448E-06  3408   0.336E-03    0.113E-02
DAV:  19    -0.971115790362E+03   -0.58306E-04   -0.12129E-06  2256   0.235E-03    0.816E-03
DAV:  20    -0.971115853153E+03   -0.62791E-04   -0.13285E-06  2256   0.186E-03    0.627E-03
DAV:  21    -0.971115914236E+03   -0.61083E-04   -0.10047E-06  1968   0.157E-03    0.402E-03
DAV:  22    -0.971115958404E+03   -0.44168E-04   -0.60519E-07  1920   0.136E-03    0.421E-03
DAV:  23    -0.971116000810E+03   -0.42406E-04   -0.65753E-07  1872   0.133E-03    0.320E-03
DAV:  24    -0.971116039753E+03   -0.38943E-04   -0.85809E-07  2064   0.132E-03    0.185E-03
DAV:  25    -0.971116071878E+03   -0.32125E-04   -0.54167E-07  1824   0.112E-03    0.257E-03
DAV:  26    -0.971116095180E+03   -0.23302E-04   -0.46221E-07  1872   0.110E-03    0.187E-03
DAV:  27    -0.971116107833E+03   -0.12653E-04   -0.34458E-07  1776   0.102E-03    0.130E-03
DAV:  28    -0.971116122326E+03   -0.14492E-04   -0.39700E-07  1824   0.937E-04    0.112E-03
DAV:  29    -0.971116130406E+03   -0.80801E-05   -0.29298E-07  1824   0.962E-04    0.849E-04
DAV:  30    -0.971116136324E+03   -0.59182E-05   -0.26979E-07  1824   0.821E-04    0.827E-04
DAV:  31    -0.971116140374E+03   -0.40503E-05   -0.21913E-07  1776   0.831E-04    0.686E-04
DAV:  32    -0.971116143055E+03   -0.26808E-05   -0.20916E-07  1824   0.727E-04    0.706E-04
DAV:  33    -0.971116143689E+03   -0.63385E-06   -0.12968E-07  1728   0.724E-04
  26 F= -.97111614E+03 E0= -.97110160E+03  d E =-.322753E+00  mag=    16.0315
 trial-energy change:   -0.322753  1 .order   -0.322839   -0.445320   -0.200357
 step:   0.6908(harm=  0.6908)  dis= 0.06515  next Energy=  -971.198166 (dE=-0.405E+00)
 bond charge predicted
       N       E                     dE             d eps       ncg     rms          rms(c)
DAV:   1    -0.970921008373E+03    0.19513E+00   -0.11289E+02  2880   0.128E+01    0.328E+00
DAV:   2    -0.971207221127E+03   -0.28621E+00   -0.30567E+00  3888   0.278E+00    0.553E+00
DAV:   3    -0.971204337182E+03    0.28839E-02   -0.28184E-01  4704   0.946E-01    0.256E+00
DAV:   4    -0.971200061256E+03    0.42759E-02   -0.84396E-02  4800   0.475E-01    0.317E+00
DAV:   5    -0.971197057100E+03    0.30042E-02   -0.35901E-02  4944   0.295E-01    0.154E+00
DAV:   6    -0.971200129562E+03   -0.30725E-02   -0.43633E-02  4848   0.344E-01    0.185E+00
DAV:   7    -0.971196233884E+03    0.38957E-02   -0.13545E-02  4608   0.214E-01    0.134E+00
DAV:   8    -0.971196172402E+03    0.61482E-04   -0.15527E-02  4416   0.183E-01    0.503E-01
DAV:   9    -0.971196726850E+03   -0.55445E-03   -0.36299E-03  4608   0.965E-02    0.522E-01
DAV:  10    -0.971196800941E+03   -0.74091E-04   -0.81841E-04  4848   0.457E-02    0.276E-01
DAV:  11    -0.971197116608E+03   -0.31567E-03   -0.78984E-04  4224   0.406E-02    0.158E-01
DAV:  12    -0.971197385340E+03   -0.26873E-03   -0.35179E-04  4704   0.307E-02    0.130E-01
DAV:  13    -0.971197667069E+03   -0.28173E-03   -0.18860E-04  4608   0.201E-02    0.150E-01
DAV:  14    -0.971197755162E+03   -0.88093E-04   -0.84423E-05  4272   0.139E-02    0.738E-02
DAV:  15    -0.971197865289E+03   -0.11013E-03   -0.22988E-05  4512   0.768E-03    0.376E-02
DAV:  16    -0.971197981672E+03   -0.11638E-03   -0.11400E-05  4800   0.576E-03    0.326E-02
DAV:  17    -0.971198093721E+03   -0.11205E-03   -0.56972E-06  3792   0.403E-03    0.222E-02
DAV:  18    -0.971198177778E+03   -0.84057E-04   -0.29486E-06  2784   0.283E-03    0.697E-03
DAV:  19    -0.971198224664E+03   -0.46886E-04   -0.13236E-06  2304   0.210E-03    0.459E-03
DAV:  20    -0.971198269495E+03   -0.44831E-04   -0.73481E-07  1968   0.156E-03    0.321E-03
DAV:  21    -0.971198307091E+03   -0.37596E-04   -0.56632E-07  1872   0.140E-03    0.260E-03
DAV:  22    -0.971198355870E+03   -0.48779E-04   -0.99071E-07  2112   0.130E-03    0.297E-03
DAV:  23    -0.971198385455E+03   -0.29585E-04   -0.40675E-07  1824   0.118E-03    0.244E-03
DAV:  24    -0.971198411010E+03   -0.25555E-04   -0.40248E-07  1920   0.105E-03    0.181E-03
DAV:  25    -0.971198436260E+03   -0.25249E-04   -0.44159E-07  1824   0.108E-03    0.141E-03
DAV:  26    -0.971198453859E+03   -0.17600E-04   -0.39404E-07  1824   0.105E-03    0.139E-03
DAV:  27    -0.971198465867E+03   -0.12008E-04   -0.35790E-07  1776   0.102E-03    0.876E-04
DAV:  28    -0.971198475571E+03   -0.97036E-05   -0.33884E-07  1824   0.951E-04    0.923E-04
DAV:  29    -0.971198482232E+03   -0.66614E-05   -0.31431E-07  1776   0.936E-04    0.784E-04
DAV:  30    -0.971198485294E+03   -0.30615E-05   -0.23567E-07  1776   0.859E-04    0.698E-04
DAV:  31    -0.971198487107E+03   -0.18130E-05   -0.19267E-07  1776   0.772E-04    0.636E-04
DAV:  32    -0.971198487793E+03   -0.68612E-06   -0.13304E-07  1728   0.702E-04
  27 F= -.97119849E+03 E0= -.97118385E+03  d E =-.405097E+00  mag=    16.0511
 curvature:  -1.36 expect dE=-0.206E+01 dE for cont linesearch -0.312E-05
 trial: gam= 1.24787 g(F)=  0.152E+01 g(S)=  0.000E+00 ort = 0.325E-02 (trialstep = 0.234E+00)
 search vector abs. value=  0.870E+01
 bond charge predicted
       N       E                     dE             d eps       ncg     rms          rms(c)
DAV:   1    -0.971194220392E+03    0.42667E-02   -0.12036E+02  2880   0.131E+01    0.331E+00
DAV:   2    -0.971479865149E+03   -0.28564E+00   -0.31165E+00  3936   0.270E+00    0.428E+00
DAV:   3    -0.971482806919E+03   -0.29418E-02   -0.24714E-01  4848   0.881E-01    0.236E+00
DAV:   4    -0.971478497751E+03    0.43092E-02   -0.72960E-02  5040   0.407E-01    0.237E+00
DAV:   5    -0.971481869093E+03   -0.33713E-02   -0.51342E-02  4992   0.385E-01    0.145E+00
DAV:   6    -0.971474915434E+03    0.69537E-02   -0.34059E-02  4560   0.309E-01    0.494E-01
DAV:   7    -0.971476068260E+03   -0.11528E-02   -0.13915E-02  4560   0.187E-01    0.462E-01
DAV:   8    -0.971476521274E+03   -0.45301E-03   -0.24496E-03  4848   0.884E-02    0.304E-01
DAV:   9    -0.971476888478E+03   -0.36720E-03   -0.97779E-04  4704   0.470E-02    0.154E-01
DAV:  10    -0.971477359871E+03   -0.47139E-03   -0.53744E-04  4704   0.354E-02    0.121E-01
DAV:  11    -0.971477760829E+03   -0.40096E-03   -0.22390E-04  4320   0.229E-02    0.155E-01
DAV:  12    -0.971478122008E+03   -0.36118E-03   -0.26616E-04  4416   0.235E-02    0.694E-02
DAV:  13    -0.971478313451E+03   -0.19144E-03   -0.78774E-05  4608   0.156E-02    0.540E-02
DAV:  14    -0.971478502218E+03   -0.18877E-03   -0.47657E-05  4512   0.897E-03    0.250E-02
DAV:  15    -0.971478668467E+03   -0.16625E-03   -0.16053E-05  4416   0.605E-03    0.153E-02
DAV:  16    -0.971478817948E+03   -0.14948E-03   -0.47418E-06  3648   0.376E-03    0.122E-02
DAV:  17    -0.971478957434E+03   -0.13949E-03   -0.29261E-06  2736   0.241E-03    0.812E-03
DAV:  18    -0.971479076731E+03   -0.11930E-03   -0.15776E-06  2352   0.198E-03    0.539E-03
DAV:  19    -0.971479169783E+03   -0.93052E-04   -0.10301E-06  2112   0.159E-03    0.399E-03
DAV:  20    -0.971479264605E+03   -0.94822E-04   -0.13712E-06  2256   0.146E-03    0.278E-03
DAV:  21    -0.971479360688E+03   -0.96083E-04   -0.12027E-06  2352   0.130E-03    0.322E-03
DAV:  22    -0.971479438274E+03   -0.77586E-04   -0.99901E-07  2064   0.125E-03    0.311E-03
DAV:  23    -0.971479496647E+03   -0.58373E-04   -0.10846E-06  2208   0.126E-03    0.303E-03
DAV:  24    -0.971479550669E+03   -0.54022E-04   -0.10693E-06  2160   0.117E-03    0.176E-03
DAV:  25    -0.971479572870E+03   -0.22201E-04   -0.47931E-07  1872   0.108E-03    0.149E-03
DAV:  26    -0.971479584747E+03   -0.11877E-04   -0.38215E-07  1824   0.100E-03    0.110E-03
DAV:  27    -0.971479592096E+03   -0.73485E-05   -0.36249E-07  1824   0.988E-04    0.790E-04
DAV:  28    -0.971479594643E+03   -0.25476E-05   -0.24490E-07  1776   0.916E-04    0.667E-04
DAV:  29    -0.971479595942E+03   -0.12985E-05   -0.17484E-07  1728   0.767E-04    0.592E-04
DAV:  30    -0.971479596600E+03   -0.65796E-06   -0.11616E-07  1728   0.688E-04
  28 F= -.97147960E+03 E0= -.97146585E+03  d E =-.281109E+00  mag=    16.0780
 trial-energy change:   -0.281109  1 .order   -0.281165   -0.356301   -0.206030
 step:   0.5551(harm=  0.5551)  dis= 0.08124  next Energy=  -971.620893 (dE=-0.422E+00)
 bond charge predicted
       N       E                     dE             d eps       ncg     rms          rms(c)
DAV:   1    -0.971073661861E+03    0.40593E+00   -0.22598E+02  2880   0.180E+01    0.441E+00
DAV:   2    -0.971617306955E+03   -0.54365E+00   -0.59052E+00  3744   0.371E+00    0.523E+00
DAV:   3    -0.971629335065E+03   -0.12028E-01   -0.51859E-01  5040   0.123E+00    0.299E+00
DAV:   4    -0.971620910803E+03    0.84243E-02   -0.12736E-01  4944   0.551E-01    0.353E+00
DAV:   5    -0.971623380051E+03   -0.24692E-02   -0.74360E-02  4896   0.477E-01    0.166E+00
DAV:   6    -0.971614936091E+03    0.84440E-02   -0.62897E-02  4416   0.416E-01    0.712E-01
DAV:   7    -0.971616362472E+03   -0.14264E-02   -0.22464E-02  4800   0.251E-01    0.896E-01
DAV:   8    -0.971616781089E+03   -0.41862E-03   -0.46675E-03  4704   0.113E-01    0.476E-01
DAV:   9    -0.971617382927E+03   -0.60184E-03   -0.25856E-03  4896   0.746E-02    0.193E-01
DAV:  10    -0.971618083238E+03   -0.70031E-03   -0.85698E-04  4704   0.485E-02    0.165E-01
DAV:  11    -0.971619002864E+03   -0.91963E-03   -0.49063E-04  4368   0.350E-02    0.223E-01
DAV:  12    -0.971619425940E+03   -0.42308E-03   -0.43465E-04  4464   0.329E-02    0.845E-02
DAV:  13    -0.971619789815E+03   -0.36388E-03   -0.12913E-04  4128   0.196E-02    0.638E-02
DAV:  14    -0.971620032431E+03   -0.24262E-03   -0.73798E-05  4752   0.124E-02    0.431E-02
DAV:  15    -0.971620248829E+03   -0.21640E-03   -0.20131E-05  4320   0.784E-03    0.191E-02
DAV:  16    -0.971620519018E+03   -0.27019E-03   -0.10863E-05  4272   0.479E-03    0.160E-02
DAV:  17    -0.971620775270E+03   -0.25625E-03   -0.59820E-06  3696   0.349E-03    0.125E-02
DAV:  18    -0.971620904949E+03   -0.12968E-03   -0.24777E-06  2688   0.257E-03    0.825E-03
DAV:  19    -0.971621038522E+03   -0.13357E-03   -0.17633E-06  2592   0.185E-03    0.602E-03
DAV:  20    -0.971621179256E+03   -0.14073E-03   -0.14692E-06  2448   0.154E-03    0.289E-03
DAV:  21    -0.971621344655E+03   -0.16540E-03   -0.21068E-06  2400   0.148E-03    0.272E-03
DAV:  22    -0.971621494306E+03   -0.14965E-03   -0.23193E-06  2448   0.151E-03    0.297E-03
DAV:  23    -0.971621575443E+03   -0.81137E-04   -0.11785E-06  2112   0.133E-03    0.373E-03
DAV:  24    -0.971621627278E+03   -0.51835E-04   -0.80547E-07  2064   0.120E-03    0.233E-03
DAV:  25    -0.971621671254E+03   -0.43976E-04   -0.11614E-06  2160   0.123E-03    0.965E-04
DAV:  26    -0.971621688860E+03   -0.17606E-04   -0.44913E-07  1872   0.103E-03    0.950E-04
DAV:  27    -0.971621698154E+03   -0.92935E-05   -0.39028E-07  1824   0.950E-04    0.743E-04
DAV:  28    -0.971621700873E+03   -0.27188E-05   -0.23337E-07  1776   0.901E-04    0.607E-04
DAV:  29    -0.971621703074E+03   -0.22012E-05   -0.19161E-07  1824   0.726E-04    0.583E-04
DAV:  30    -0.971621704256E+03   -0.11817E-05   -0.12505E-07  1728   0.713E-04    0.559E-04
DAV:  31    -0.971621705185E+03   -0.92974E-06   -0.10328E-07  1776   0.570E-04
  29 F= -.97162171E+03 E0= -.97160906E+03  d E =-.423217E+00  mag=    16.1002
 curvature:  -1.59 expect dE=-0.145E+01 dE for cont linesearch -0.874E-05
 trial: gam= 0.59836 g(F)=  0.913E+00 g(S)=  0.000E+00 ort = 0.692E-02 (trialstep = 0.298E+00)
 search vector abs. value=  0.404E+01
 bond charge predicted
       N       E                     dE             d eps       ncg     rms          rms(c)
DAV:   1    -0.971593814260E+03    0.27890E-01   -0.91990E+01  2880   0.114E+01    0.343E+00
DAV:   2    -0.971815907742E+03   -0.22209E+00   -0.23826E+00  3792   0.237E+00    0.487E+00
DAV:   3    -0.971813199328E+03    0.27084E-02   -0.21505E-01  4704   0.814E-01    0.255E+00
DAV:   4    -0.971809618245E+03    0.35811E-02   -0.42499E-02  4800   0.375E-01    0.369E+00
DAV:   5    -0.971808235675E+03    0.13826E-02   -0.24681E-02  4416   0.270E-01    0.146E+00
DAV:   6    -0.971809538800E+03   -0.13031E-02   -0.44591E-02  4608   0.356E-01    0.267E+00
DAV:   7    -0.971804655106E+03    0.48837E-02   -0.12812E-02  4608   0.221E-01    0.628E-01
DAV:   8    -0.971805795675E+03   -0.11406E-02   -0.12731E-02  4368   0.172E-01    0.494E-01
DAV:   9    -0.971805346184E+03    0.44949E-03   -0.50887E-03  4848   0.117E-01    0.438E-01
DAV:  10    -0.971805368046E+03   -0.21862E-04   -0.13284E-03  4848   0.557E-02    0.137E-01
