<?xml version="1.0" encoding="ISO-8859-1"?>
<modeling>
 <generator>
  <i name="program" type="string">vasp </i>
  <i name="version" type="string">6.4.3  </i>
  <i name="subversion" type="string">19Mar24 (build Mar 01 2025 18:03:59) gamma-only                       parallel </i>
  <i name="platform" type="string">Shaheen </i>
  <i name="date" type="string">2025 04 29 </i>
  <i name="time" type="string">14:44:00 </i>
 </generator>
 <incar>
  <i type="int" name="ISTART">     1</i>
  <i type="string" name="PREC">Accurate   (Precision level: Normal or Accurate, set Accurate when perform structure lattice relaxation calculation)</i>
  <i type="logical" name="ADDGRID"> T  </i>
  <i type="int" name="ISPIN">     2</i>
  <i type="int" name="NELM">    90</i>
  <i type="int" name="NELMIN">     6</i>
  <i type="int" name="IBRION">     2</i>
  <i name="EDIFF">      0.00000100</i>
  <i name="EDIFFG">     -0.02000000</i>
  <i type="int" name="NSW">   300</i>
  <i type="int" name="ISIF">     2</i>
  <i name="ENCUT">    520.00000000</i>
  <v name="MAGMOM">      1.00000000      1.00000000      1.00000000      1.00000000      1.00000000      1.00000000      1.00000000      1.00000000      1.00000000      1.00000000      1.00000000      1.00000000      1.00000000      1.00000000      1.00000000      1.00000000      1.00000000      1.00000000      1.00000000      1.00000000
      1.00000000      1.00000000      1.00000000      1.00000000      1.00000000      1.00000000      1.00000000      1.00000000      1.00000000      1.00000000      1.00000000      1.00000000      0.60000000      0.60000000      0.60000000      0.60000000      0.60000000      0.60000000      0.60000000      0.60000000
      0.60000000      0.60000000      0.60000000      0.60000000      0.60000000      0.60000000      0.60000000      0.60000000      0.60000000      0.60000000      0.60000000      0.60000000      0.60000000      0.60000000      0.60000000      0.60000000      0.60000000      0.60000000      0.60000000      0.60000000
      0.60000000      0.60000000      0.60000000      0.60000000      0.60000000      0.60000000      0.60000000      0.60000000      0.60000000      0.60000000      0.60000000      0.60000000      0.60000000      0.60000000      0.60000000      0.60000000      0.60000000      0.60000000      0.60000000      0.60000000
      0.60000000      0.60000000      0.60000000      0.60000000      0.60000000      0.60000000      0.60000000      0.60000000      0.60000000      0.60000000      0.60000000      0.60000000      0.60000000      0.60000000      0.60000000      0.60000000      0.60000000      0.60000000      0.60000000      0.60000000
      0.60000000      0.60000000      0.60000000      0.60000000      0.60000000      0.60000000      0.60000000      0.60000000      0.60000000      0.60000000      0.60000000      0.60000000      0.60000000      0.60000000      0.60000000      0.60000000      0.60000000      0.60000000      0.60000000      0.60000000
      0.60000000      0.60000000      0.60000000      0.60000000      0.60000000      0.60000000      0.60000000      0.60000000      0.60000000      0.60000000      0.60000000      0.60000000      0.60000000      0.60000000      0.60000000      0.60000000      0.60000000      0.60000000      0.60000000      0.60000000
      0.60000000      0.60000000      0.60000000</v>
  <i type="logical" name="LREAL"> F  </i>
  <i type="int" name="ISMEAR">     0</i>
  <i name="SIGMA">      0.05000000</i>
  <i type="int" name="LMAXMIX">     6</i>
  <i type="logical" name="LWAVE"> F  </i>
  <i type="logical" name="LCHARG"> F  </i>
  <i type="logical" name="LASPH"> T  </i>
  <i type="logical" name="LDAU"> T  </i>
  <i type="int" name="LDAUTYPE">     2</i>
  <v type="int" name="LDAUL">     3    -1     2</v>
  <v name="LDAUU">      5.00000000      0.00000000      2.00000000</v>
  <v name="LDAUJ">      0.00000000      0.00000000      0.00000000</v>
 </incar>
 <primitive_cell>
  <structure name="primitive_cell" >
   <crystal>
    <varray name="basis" >
     <v>      15.46430016       0.00000000       0.00000000 </v>
     <v>      -7.73215008      13.39247679       0.00000000 </v>
     <v>       0.00000000       0.00000000      21.04820061 </v>
    </varray>
    <i name="volume">   4359.19349823 </i>
    <varray name="rec_basis" >
     <v>       0.06466507       0.03733439       0.00000000 </v>
     <v>       0.00000000       0.07466879       0.00000000 </v>
     <v>       0.00000000       0.00000000       0.04751000 </v>
    </varray>
   </crystal>
   <varray name="positions" >
    <v>       0.00000000       0.00000000       0.45993000 </v>
    <v>       0.16667000       0.08333000       0.30996000 </v>
    <v>       0.25000000       0.00000000       0.45993000 </v>
    <v>       0.41667000       0.08333000       0.30996000 </v>
    <v>       0.50000000       0.00000000       0.45993000 </v>
    <v>       0.66667000       0.08333000       0.30996000 </v>
    <v>       0.75000000       0.00000000       0.45993000 </v>
    <v>       0.91667000       0.08333000       0.30996000 </v>
    <v>       0.00000000       0.25000000       0.45993000 </v>
    <v>       0.16667000       0.33333000       0.30996000 </v>
    <v>       0.25000000       0.25000000       0.45993000 </v>
    <v>       0.41667000       0.33333000       0.30996000 </v>
    <v>       0.50000000       0.25000000       0.45993000 </v>
    <v>       0.66667000       0.33333000       0.30996000 </v>
    <v>       0.75000000       0.25000000       0.45993000 </v>
    <v>       0.91667000       0.33333000       0.30996000 </v>
    <v>       0.00000000       0.50000000       0.45993000 </v>
    <v>       0.16667000       0.58333000       0.30996000 </v>
    <v>       0.25000000       0.50000000       0.45993000 </v>
    <v>       0.41667000       0.58333000       0.30996000 </v>
    <v>       0.50000000       0.50000000       0.45993000 </v>
    <v>       0.66667000       0.58333000       0.30996000 </v>
    <v>       0.75000000       0.50000000       0.45993000 </v>
    <v>       0.91667000       0.58333000       0.30996000 </v>
    <v>       0.00000000       0.75000000       0.45993000 </v>
    <v>       0.16667000       0.83333000       0.30996000 </v>
    <v>       0.25000000       0.75000000       0.45993000 </v>
    <v>       0.41667000       0.83333000       0.30996000 </v>
    <v>       0.50000000       0.75000000       0.45993000 </v>
    <v>       0.66667000       0.83333000       0.30996000 </v>
    <v>       0.75000000       0.75000000       0.45993000 </v>
    <v>       0.91667000       0.83333000       0.30996000 </v>
    <v>       0.08333000       0.16667000       0.27247000 </v>
    <v>       0.16667000       0.08333000       0.42244000 </v>
    <v>       0.08333000       0.16667000       0.49742000 </v>
    <v>       0.00000000       0.00000000       0.34745000 </v>
    <v>       0.16667000       0.08333000       0.19748000 </v>
    <v>       0.25000000       0.00000000       0.57241000 </v>
    <v>       0.33333000       0.16667000       0.27247000 </v>
    <v>       0.41667000       0.08333000       0.42244000 </v>
    <v>       0.33333000       0.16667000       0.49742000 </v>
    <v>       0.25000000       0.00000000       0.34745000 </v>
    <v>       0.41667000       0.08333000       0.19748000 </v>
    <v>       0.58333000       0.16667000       0.27247000 </v>
    <v>       0.66667000       0.08333000       0.42244000 </v>
    <v>       0.58333000       0.16667000       0.49742000 </v>
    <v>       0.50000000       0.00000000       0.34745000 </v>
    <v>       0.66667000       0.08333000       0.19748000 </v>
    <v>       0.83333000       0.16667000       0.27247000 </v>
    <v>       0.91667000       0.08333000       0.42244000 </v>
    <v>       0.83333000       0.16667000       0.49742000 </v>
    <v>       0.75000000       0.00000000       0.34745000 </v>
    <v>       0.91667000       0.08333000       0.19748000 </v>
    <v>       0.00000000       0.25000000       0.57241000 </v>
    <v>       0.08333000       0.41667000       0.27247000 </v>
    <v>       0.16667000       0.33333000       0.42244000 </v>
    <v>       0.08333000       0.41667000       0.49742000 </v>
    <v>       0.00000000       0.25000000       0.34745000 </v>
    <v>       0.16667000       0.33333000       0.19748000 </v>
    <v>       0.33333000       0.41667000       0.27247000 </v>
    <v>       0.41667000       0.33333000       0.42244000 </v>
    <v>       0.33333000       0.41667000       0.49742000 </v>
    <v>       0.25000000       0.25000000       0.34745000 </v>
    <v>       0.41667000       0.33333000       0.19748000 </v>
    <v>       0.50000000       0.25000000       0.57241000 </v>
    <v>       0.58333000       0.41667000       0.27247000 </v>
    <v>       0.66667000       0.33333000       0.42244000 </v>
    <v>       0.58333000       0.41667000       0.49742000 </v>
    <v>       0.50000000       0.25000000       0.34745000 </v>
    <v>       0.66667000       0.33333000       0.19748000 </v>
    <v>       0.83333000       0.41667000       0.27247000 </v>
    <v>       0.91667000       0.33333000       0.42244000 </v>
    <v>       0.83333000       0.41667000       0.49742000 </v>
    <v>       0.75000000       0.25000000       0.34745000 </v>
    <v>       0.91667000       0.33333000       0.19748000 </v>
    <v>       0.08333000       0.66667000       0.27247000 </v>
    <v>       0.16667000       0.58333000       0.42244000 </v>
    <v>       0.08333000       0.66667000       0.49742000 </v>
    <v>       0.00000000       0.50000000       0.34745000 </v>
    <v>       0.16667000       0.58333000       0.19748000 </v>
    <v>       0.25000000       0.50000000       0.57241000 </v>
    <v>       0.33333000       0.66667000       0.27247000 </v>
    <v>       0.41667000       0.58333000       0.42244000 </v>
    <v>       0.33333000       0.66667000       0.49742000 </v>
    <v>       0.25000000       0.50000000       0.34745000 </v>
    <v>       0.41667000       0.58333000       0.19748000 </v>
    <v>       0.58333000       0.66667000       0.27247000 </v>
    <v>       0.66667000       0.58333000       0.42244000 </v>
    <v>       0.58333000       0.66667000       0.49742000 </v>
    <v>       0.50000000       0.50000000       0.34745000 </v>
    <v>       0.66667000       0.58333000       0.19748000 </v>
    <v>       0.75000000       0.50000000       0.57241000 </v>
    <v>       0.75000000       0.00000000       0.57241000 </v>
    <v>       0.83333000       0.66667000       0.27247000 </v>
    <v>       0.91667000       0.58333000       0.42244000 </v>
    <v>       0.83333000       0.66667000       0.49742000 </v>
    <v>       0.75000000       0.50000000       0.34745000 </v>
    <v>       0.91667000       0.58333000       0.19748000 </v>
    <v>       0.08333000       0.91667000       0.27247000 </v>
    <v>       0.16667000       0.83333000       0.42244000 </v>
    <v>       0.08333000       0.91667000       0.49742000 </v>
    <v>       0.00000000       0.75000000       0.34745000 </v>
    <v>       0.16667000       0.83333000       0.19748000 </v>
    <v>       0.33333000       0.91667000       0.27247000 </v>
    <v>       0.41667000       0.83333000       0.42244000 </v>
    <v>       0.33333000       0.91667000       0.49742000 </v>
    <v>       0.25000000       0.75000000       0.34745000 </v>
    <v>       0.41667000       0.83333000       0.19748000 </v>
    <v>       0.50000000       0.75000000       0.57241000 </v>
    <v>       0.58333000       0.91667000       0.27247000 </v>
    <v>       0.66667000       0.83333000       0.42244000 </v>
    <v>       0.58333000       0.91667000       0.49742000 </v>
    <v>       0.50000000       0.75000000       0.34745000 </v>
    <v>       0.66667000       0.83333000       0.19748000 </v>
    <v>       0.83333000       0.91667000       0.27247000 </v>
    <v>       0.91667000       0.83333000       0.42244000 </v>
    <v>       0.83333000       0.91667000       0.49742000 </v>
    <v>       0.75000000       0.75000000       0.34745000 </v>
    <v>       0.91667000       0.83333000       0.19748000 </v>
    <v>       0.58333000       0.42313000       0.64471000 </v>
    <v>       0.33333000       0.67313000       0.64471000 </v>
    <v>       0.83333000       0.67313000       0.64471000 </v>
    <v>       0.58333000       0.92313000       0.64471000 </v>
    <v>       0.67274000       0.33528000       0.64832000 </v>
    <v>       0.42274000       0.58528000       0.64832000 </v>
    <v>       0.92274000       0.58528000       0.64832000 </v>
    <v>       0.67274000       0.83528000       0.64832000 </v>
    <v>       0.67456000       0.33342000       0.50166000 </v>
    <v>       0.42456000       0.58342000       0.50166000 </v>
    <v>       0.92456000       0.58342000       0.50166000 </v>
    <v>       0.67456000       0.83342000       0.50166000 </v>
    <v>       0.32946000       0.17333000       0.64471000 </v>
    <v>       0.07946000       0.42333000       0.64471000 </v>
    <v>       0.41887000       0.08548000       0.64832000 </v>
    <v>       0.16887000       0.33548000       0.64832000 </v>
    <v>       0.42069000       0.08361000       0.50166000 </v>
    <v>       0.17069000       0.33361000       0.50166000 </v>
    <v>       0.62755000       0.87171000       0.57241000 </v>
    <v>       0.38290000       0.63176000       0.57241000 </v>
    <v>       0.88375000       0.62820000       0.57241000 </v>
    <v>       0.63909000       0.38824000       0.57241000 </v>
    <v>       0.12902000       0.38196000       0.57241000 </v>
    <v>       0.38522000       0.13844000       0.57241000 </v>
   </varray>
  </structure>
  <varray name="primitive_index" >
   <v type="int" >        1 </v>
   <v type="int" >        2 </v>
   <v type="int" >        3 </v>
   <v type="int" >        4 </v>
   <v type="int" >        5 </v>
   <v type="int" >        6 </v>
   <v type="int" >        7 </v>
   <v type="int" >        8 </v>
   <v type="int" >        9 </v>
   <v type="int" >       10 </v>
   <v type="int" >       11 </v>
   <v type="int" >       12 </v>
   <v type="int" >       13 </v>
   <v type="int" >       14 </v>
   <v type="int" >       15 </v>
   <v type="int" >       16 </v>
   <v type="int" >       17 </v>
   <v type="int" >       18 </v>
   <v type="int" >       19 </v>
   <v type="int" >       20 </v>
   <v type="int" >       21 </v>
   <v type="int" >       22 </v>
   <v type="int" >       23 </v>
   <v type="int" >       24 </v>
   <v type="int" >       25 </v>
   <v type="int" >       26 </v>
   <v type="int" >       27 </v>
   <v type="int" >       28 </v>
   <v type="int" >       29 </v>
   <v type="int" >       30 </v>
   <v type="int" >       31 </v>
   <v type="int" >       32 </v>
   <v type="int" >       33 </v>
   <v type="int" >       34 </v>
   <v type="int" >       35 </v>
   <v type="int" >       36 </v>
   <v type="int" >       37 </v>
   <v type="int" >       38 </v>
   <v type="int" >       39 </v>
   <v type="int" >       40 </v>
   <v type="int" >       41 </v>
   <v type="int" >       42 </v>
   <v type="int" >       43 </v>
   <v type="int" >       44 </v>
   <v type="int" >       45 </v>
   <v type="int" >       46 </v>
   <v type="int" >       47 </v>
   <v type="int" >       48 </v>
   <v type="int" >       49 </v>
   <v type="int" >       50 </v>
   <v type="int" >       51 </v>
   <v type="int" >       52 </v>
   <v type="int" >       53 </v>
   <v type="int" >       54 </v>
   <v type="int" >       55 </v>
   <v type="int" >       56 </v>
   <v type="int" >       57 </v>
   <v type="int" >       58 </v>
   <v type="int" >       59 </v>
   <v type="int" >       60 </v>
   <v type="int" >       61 </v>
   <v type="int" >       62 </v>
   <v type="int" >       63 </v>
   <v type="int" >       64 </v>
   <v type="int" >       65 </v>
   <v type="int" >       66 </v>
   <v type="int" >       67 </v>
   <v type="int" >       68 </v>
   <v type="int" >       69 </v>
   <v type="int" >       70 </v>
   <v type="int" >       71 </v>
   <v type="int" >       72 </v>
   <v type="int" >       73 </v>
   <v type="int" >       74 </v>
   <v type="int" >       75 </v>
   <v type="int" >       76 </v>
   <v type="int" >       77 </v>
   <v type="int" >       78 </v>
   <v type="int" >       79 </v>
   <v type="int" >       80 </v>
   <v type="int" >       81 </v>
   <v type="int" >       82 </v>
   <v type="int" >       83 </v>
   <v type="int" >       84 </v>
   <v type="int" >       85 </v>
   <v type="int" >       86 </v>
   <v type="int" >       87 </v>
   <v type="int" >       88 </v>
   <v type="int" >       89 </v>
   <v type="int" >       90 </v>
   <v type="int" >       91 </v>
   <v type="int" >       92 </v>
   <v type="int" >       93 </v>
   <v type="int" >       94 </v>
   <v type="int" >       95 </v>
   <v type="int" >       96 </v>
   <v type="int" >       97 </v>
   <v type="int" >       98 </v>
   <v type="int" >       99 </v>
   <v type="int" >      100 </v>
   <v type="int" >      101 </v>
   <v type="int" >      102 </v>
   <v type="int" >      103 </v>
   <v type="int" >      104 </v>
   <v type="int" >      105 </v>
   <v type="int" >      106 </v>
   <v type="int" >      107 </v>
   <v type="int" >      108 </v>
   <v type="int" >      109 </v>
   <v type="int" >      110 </v>
   <v type="int" >      111 </v>
   <v type="int" >      112 </v>
   <v type="int" >      113 </v>
   <v type="int" >      114 </v>
   <v type="int" >      115 </v>
   <v type="int" >      116 </v>
   <v type="int" >      117 </v>
   <v type="int" >      118 </v>
   <v type="int" >      119 </v>
   <v type="int" >      120 </v>
   <v type="int" >      121 </v>
   <v type="int" >      122 </v>
   <v type="int" >      123 </v>
   <v type="int" >      124 </v>
   <v type="int" >      125 </v>
   <v type="int" >      126 </v>
   <v type="int" >      127 </v>
   <v type="int" >      128 </v>
   <v type="int" >      129 </v>
   <v type="int" >      130 </v>
   <v type="int" >      131 </v>
   <v type="int" >      132 </v>
   <v type="int" >      133 </v>
   <v type="int" >      134 </v>
   <v type="int" >      135 </v>
   <v type="int" >      136 </v>
   <v type="int" >      137 </v>
   <v type="int" >      138 </v>
   <v type="int" >      139 </v>
   <v type="int" >      140 </v>
   <v type="int" >      141 </v>
   <v type="int" >      142 </v>
   <v type="int" >      143 </v>
  </varray>
 </primitive_cell>
 <kpoints>
  <generation param="Gamma">
   <v type="int" name="divisions">       1        1        1 </v>
   <v name="usershift">      0.00000000       0.00000000       0.00000000 </v>
   <v name="genvec1">      1.00000000       0.00000000       0.00000000 </v>
   <v name="genvec2">      0.00000000       1.00000000       0.00000000 </v>
   <v name="genvec3">      0.00000000       0.00000000       1.00000000 </v>
   <v name="shift">      0.00000000       0.00000000       0.00000000 </v>
  </generation>
  <varray name="kpointlist" >
   <v>       0.00000000       0.00000000       0.00000000 </v>
  </varray>
  <varray name="weights" >
   <v>       1.00000000 </v>
  </varray>
 </kpoints>
 <parameters>
  <separator name="general" >
   <i type="string" name="SYSTEM">unknown system</i>
   <i type="logical" name="LCOMPAT"> F  </i>
  </separator>
  <separator name="electronic" >
   <i type="string" name="PREC">accura</i>
   <i name="ENMAX">    520.00000000</i>
   <i name="ENAUG">    605.39200000</i>
   <i name="EDIFF">      0.00000100</i>
   <i type="int" name="IALGO">    38</i>
   <i type="int" name="IWAVPR">    11</i>
   <i type="int" name="NBANDS">   720</i>
   <i type="int" name="NBANDSLOW">    -1</i>
   <i type="int" name="NBANDSHIGH">    -1</i>
   <i name="NELECT">   1068.00000000</i>
   <i type="int" name="TURBO">     0</i>
   <i type="int" name="IRESTART">     0</i>
   <i type="int" name="NREBOOT">     0</i>
   <i type="int" name="NMIN">     0</i>
   <i name="EREF">      0.00000000</i>
   <separator name="electronic smearing" >
    <i type="int" name="ISMEAR">     0</i>
    <i name="SIGMA">      0.05000000</i>
    <i name="KSPACING">      0.50000000</i>
    <i type="logical" name="KGAMMA"> T  </i>
    <i type="logical" name="KBLOWUP"> T  </i>
   </separator>
   <separator name="electronic projectors" >
    <i type="logical" name="LREAL"> F  </i>
    <v name="ROPT">      0.00000000      0.00000000      0.00000000</v>
    <i type="int" name="LMAXPAW">  -100</i>
    <i type="int" name="LMAXMIX">     6</i>
    <i type="logical" name="NLSPLINE"> F  </i>
   </separator>
   <separator name="electronic startup" >
    <i type="int" name="ISTART">     0</i>
    <i type="int" name="ICHARG">     2</i>
    <i type="int" name="INIWAV">     1</i>
   </separator>
   <separator name="electronic spin" >
    <i type="int" name="ISPIN">     2</i>
    <i type="logical" name="LNONCOLLINEAR"> F  </i>
    <v name="MAGMOM">      1.00000000      1.00000000      1.00000000      1.00000000      1.00000000      1.00000000      1.00000000      1.00000000      1.00000000      1.00000000      1.00000000      1.00000000      1.00000000      1.00000000      1.00000000      1.00000000      1.00000000      1.00000000      1.00000000      1.00000000
      1.00000000      1.00000000      1.00000000      1.00000000      1.00000000      1.00000000      1.00000000      1.00000000      1.00000000      1.00000000      1.00000000      1.00000000      0.60000000      0.60000000      0.60000000      0.60000000      0.60000000      0.60000000      0.60000000      0.60000000
      0.60000000      0.60000000      0.60000000      0.60000000      0.60000000      0.60000000      0.60000000      0.60000000      0.60000000      0.60000000      0.60000000      0.60000000      0.60000000      0.60000000      0.60000000      0.60000000      0.60000000      0.60000000      0.60000000      0.60000000
      0.60000000      0.60000000      0.60000000      0.60000000      0.60000000      0.60000000      0.60000000      0.60000000      0.60000000      0.60000000      0.60000000      0.60000000      0.60000000      0.60000000      0.60000000      0.60000000      0.60000000      0.60000000      0.60000000      0.60000000
      0.60000000      0.60000000      0.60000000      0.60000000      0.60000000      0.60000000      0.60000000      0.60000000      0.60000000      0.60000000      0.60000000      0.60000000      0.60000000      0.60000000      0.60000000      0.60000000      0.60000000      0.60000000      0.60000000      0.60000000
      0.60000000      0.60000000      0.60000000      0.60000000      0.60000000      0.60000000      0.60000000      0.60000000      0.60000000      0.60000000      0.60000000      0.60000000      0.60000000      0.60000000      0.60000000      0.60000000      0.60000000      0.60000000      0.60000000      0.60000000
      0.60000000      0.60000000      0.60000000      0.60000000      0.60000000      0.60000000      0.60000000      0.60000000      0.60000000      0.60000000      0.60000000      0.60000000      0.60000000      0.60000000      0.60000000      0.60000000      0.60000000      0.60000000      0.60000000      0.60000000
      0.60000000      0.60000000      0.60000000</v>
    <i name="NUPDOWN">     -1.00000000</i>
    <i type="logical" name="LSORBIT"> F  </i>
    <v name="SAXIS">      0.00000000      0.00000000      1.00000000</v>
    <i type="logical" name="LSPIRAL"> F  </i>
    <v name="QSPIRAL">      0.00000000      0.00000000      0.00000000</v>
    <i type="logical" name="LZEROZ"> F  </i>
   </separator>
   <separator name="electronic exchange-correlation" >
    <i type="logical" name="LASPH"> T  </i>
   </separator>
   <separator name="electronic convergence" >
    <i type="int" name="NELM">    90</i>
    <i type="int" name="NELMDL">     0</i>
    <i type="int" name="NELMIN">     6</i>
    <i name="ENINI">    520.00000000</i>
    <separator name="electronic convergence detail" >
     <i type="logical" name="LDIAG"> T  </i>
     <i type="logical" name="LSUBROT"> F  </i>
     <i name="WEIMIN">      0.00100000</i>
     <i name="EBREAK">      0.00000000</i>
     <i name="DEPER">      0.30000000</i>
     <i type="int" name="NRMM">     4</i>
     <i name="TIME">      0.40000000</i>
    </separator>
   </separator>
   <separator name="electronic mixer" >
    <i name="AMIX">      0.40000000</i>
    <i name="BMIX">      1.00000000</i>
    <i name="AMIN">      0.10000000</i>
    <i name="AMIX_MAG">      1.60000000</i>
    <i name="BMIX_MAG">      1.00000000</i>
    <separator name="electronic mixer details" >
     <i type="int" name="IMIX">     4</i>
     <i type="logical" name="MIXFIRST"> F  </i>
     <i type="int" name="MAXMIX">   -45</i>
     <i name="WC">    100.00000000</i>
     <i type="int" name="INIMIX">     1</i>
     <i type="int" name="MIXPRE">     1</i>
     <i type="int" name="MREMOVE">     5</i>
    </separator>
   </separator>
   <separator name="electronic dipolcorrection" >
    <i type="logical" name="LDIPOL"> F  </i>
    <i type="logical" name="LMONO"> F  </i>
    <i type="int" name="IDIPOL">     0</i>
    <i name="EPSILON">      1.00000000</i>
    <v name="DIPOL">   -100.00000000   -100.00000000   -100.00000000</v>
    <i name="EFIELD">      0.00000000</i>
    <i type="logical" name="LVACPOTAV"> F  </i>
   </separator>
  </separator>
  <separator name="grids" >
   <i type="int" name="NGX">   120</i>
   <i type="int" name="NGY">   120</i>
   <i type="int" name="NGZ">   160</i>
   <i type="int" name="NGXF">   240</i>
   <i type="int" name="NGYF">   240</i>
   <i type="int" name="NGZF">   320</i>
   <i type="logical" name="ADDGRID"> T  </i>
  </separator>
  <separator name="ionic" >
   <i type="int" name="NSW">   300</i>
   <i type="int" name="IBRION">     2</i>
   <i type="int" name="MDALGO">     0</i>
   <i type="int" name="ISIF">     2</i>
   <i name="PSTRESS">      0.00000000</i>
   <i name="EDIFFG">     -0.02000000</i>
   <i type="int" name="NFREE">     1</i>
   <i name="POTIM">      0.50000000</i>
   <i name="SMASS">     -3.00000000</i>
   <i name="SCALEE">      1.00000000</i>
  </separator>
  <separator name="ionic md" >
   <i name="TEBEG">      0.00010000</i>
   <i name="TEEND">      0.00010000</i>
   <i type="int" name="NBLOCK">     1</i>
   <i type="int" name="KBLOCK">   300</i>
   <i type="int" name="NPACO">   256</i>
   <i name="APACO">     10.00000000</i>
  </separator>
  <separator name="symmetry" >
   <i type="int" name="ISYM">     2</i>
   <i name="SYMPREC">      0.00001000</i>
  </separator>
  <separator name="dos" >
   <i type="int" name="LORBIT">     0</i>
   <v name="RWIGS">     -1.00000000     -1.00000000     -1.00000000</v>
   <i type="int" name="NEDOS">   301</i>
   <i name="EMIN">     10.00000000</i>
   <i name="EMAX">    -10.00000000</i>
   <i name="EFERMI">      0.00000000</i>
  </separator>
  <separator name="writing" >
   <i type="int" name="NWRITE">     2</i>
   <i type="logical" name="LWAVE"> F  </i>
   <i type="logical" name="LDOWNSAMPLE"> F  </i>
   <i type="logical" name="LCHARG"> F  </i>
   <i type="logical" name="LPARD"> F  </i>
   <i type="logical" name="LVTOT"> F  </i>
   <i type="logical" name="LVHAR"> F  </i>
   <i type="logical" name="LELF"> F  </i>
   <i type="logical" name="LOPTICS"> F  </i>
   <v name="STM">      0.00000000      0.00000000      0.00000000      0.00000000      0.00000000      0.00000000      0.00000000</v>
  </separator>
  <separator name="performance" >
   <i type="int" name="NPAR">    48</i>
   <i type="int" name="NSIM">     4</i>
   <i type="int" name="NBLK">    -1</i>
   <i type="logical" name="LPLANE"> T  </i>
   <i type="logical" name="LSCALAPACK"> T  </i>
   <i type="logical" name="LSCAAWARE"> T  </i>
   <i type="logical" name="LSCALU"> F  </i>
   <i type="logical" name="LASYNC"> F  </i>
   <i type="logical" name="LORBITALREAL"> F  </i>
  </separator>
  <separator name="miscellaneous" >
   <i type="int" name="IDIOT">     3</i>
   <i type="int" name="PHON_NSTRUCT">    -1</i>
   <i type="logical" name="LMUSIC"> F  </i>
   <v name="POMASS">    140.11500000     16.00000000    192.22000000</v>
   <v name="DARWINR">      0.00000000      0.00000000      0.00000000</v>
   <v name="DARWINV">      1.00000000      1.00000000      1.00000000</v>
   <i type="logical" name="LCORR"> T  </i>
  </separator>
  <i type="logical" name="GGA_COMPAT"> T  </i>
  <i type="logical" name="LBERRY"> F  </i>
  <i type="int" name="ICORELEVEL">     0</i>
  <i type="logical" name="LDAU"> T  </i>
  <v type="int" name="LDAUTYPE">     2</v>
  <v type="int" name="LDAUL">     3</v>
  <v name="LDAUU">      5.00000000</v>
  <v name="LDAUJ">      0.00000000</v>
  <i type="int" name="LDAUPRINT">     0</i>
  <i type="int" name="I_CONSTRAINED_M">     0</i>
  <separator name="electronic exchange-correlation" >
   <i type="string" name="GGA    ">PE</i>
   <i type="string" name="XC_C">1</i>
   <i type="int" name="VOSKOWN">     0</i>
   <i type="logical" name="LHFCALC"> F  </i>
   <i type="string" name="PRECFOCK"></i>
   <i type="logical" name="LSYMGRAD"> F  </i>
   <i type="logical" name="LHFONE"> F  </i>
   <i type="logical" name="LRHFCALC"> F  </i>
   <i type="logical" name="LTHOMAS"> F  </i>
   <i type="logical" name="LMODELHF"> F  </i>
   <i type="logical" name="LFOCKACE"> F  </i>
   <i name="ENCUT4O">     -1.00000000</i>
   <i type="int" name="EXXOEP">     0</i>
   <i type="int" name="FOURORBIT">     0</i>
   <i name="AEXX">      0.00000000</i>
   <i name="HFALPHA">      0.00000000</i>
   <i name="MCALPHA">      0.00000000</i>
   <i name="ALDAX">      1.00000000</i>
   <i name="AGGAX">      1.00000000</i>
   <i name="AMGGAX">      1.00000000</i>
   <i name="ALDAC">      1.00000000</i>
   <i name="AGGAC">      1.00000000</i>
   <i name="AMGGAC">      1.00000000</i>
   <i type="int" name="NKREDX">     1</i>
   <i type="int" name="NKREDY">     1</i>
   <i type="int" name="NKREDZ">     1</i>
   <i type="logical" name="SHIFTRED"> F  </i>
   <i type="logical" name="ODDONLY"> F  </i>
   <i type="logical" name="EVENONLY"> F  </i>
   <i type="int" name="LMAXFOCK">     0</i>
   <i type="int" name="NMAXFOCKAE">     0</i>
   <i type="logical" name="LFOCKAEDFT"> F  </i>
   <i name="HFSCREEN">      0.00000000</i>
   <i name="HFSCREENC">      0.00000000</i>
   <i type="int" name="NBANDSGWLOW">     0</i>
  </separator>
  <separator name="vdW DFT" >
   <i type="logical" name="LUSE_VDW"> F  </i>
   <i type="int" name="IVDW_NL">    -1</i>
   <i type="logical" name="LSPIN_VDW"> F  </i>
   <i name="ZAB_VDW">     -0.84910000</i>
   <i name="GAMMA_VDW">      1.39626340</i>
   <i name="ALPHA_VDW">      0.00000000</i>
   <i name="PARAM1">      0.12340000</i>
   <i name="PARAM2">      1.00000000</i>
   <i name="BPARAM">      6.30000000</i>
   <i name="CPARAM">      0.00930000</i>
  </separator>
  <separator name="model GW" >
   <i type="int" name="MODEL_GW">     0</i>
   <i name="MODEL_EPS0">     18.29032237</i>
   <i name="MODEL_ALPHA">      1.00000000</i>
  </separator>
  <separator name="linear response parameters" >
   <i type="logical" name="LEPSILON"> F  </i>
   <i type="logical" name="LRPA"> F  </i>
   <i type="logical" name="LNABLA"> F  </i>
   <i type="logical" name="LVEL"> F  </i>
   <i name="CSHIFT">      0.10000000</i>
   <i name="OMEGAMAX">     -1.00000000</i>
   <i name="DEG_THRESHOLD">      0.00200000</i>
   <i name="RTIME">     -0.10000000</i>
   <i name="WPLASMAI">      0.00000000</i>
   <v name="DFIELD">      0.00000000      0.00000000      0.00000000</v>
   <v name="WPLASMA">      0.00000000      0.00000000      0.00000000      0.00000000      0.00000000      0.00000000      0.00000000      0.00000000      0.00000000</v>
  </separator>
  <separator name="orbital magnetization" >
   <i type="logical" name="NUCIND"> F  </i>
   <v name="MAGPOS">      0.00000000      0.00000000      0.00000000</v>
   <i type="logical" name="LNICSALL"> T  </i>
   <i type="logical" name="ORBITALMAG"> F  </i>
   <i type="logical" name="LMAGBLOCH"> F  </i>
   <i type="logical" name="LCHIMAG"> F  </i>
   <i type="logical" name="LGAUGE"> T  </i>
   <i type="int" name="MAGATOM">     0</i>
   <v name="MAGDIPOL">      0.00000000      0.00000000      0.00000000</v>
   <v name="AVECCONST">      0.00000000      0.00000000      0.00000000</v>
  </separator>
  <separator name="response functions" >
   <i type="logical" name="LALL_IN_ONE"> F  </i>
   <i type="int" name="IALL_IN_ONE">    -1</i>
   <i type="int" name="NBANDS_WAVE">    -1</i>
   <i type="logical" name="LFINITE_TEMPERATURE"> F  </i>
   <i type="logical" name="LADDER"> F  </i>
   <i type="logical" name="LRPAFORCE"> F  </i>
   <i type="logical" name="LFXC"> F  </i>
   <i type="logical" name="LHARTREE"> T  </i>
   <i type="int" name="IBSE">     0</i>
   <v type="int" name="KPOINT">    -1     0     0     0</v>
   <i type="logical" name="LTCTC"> F  </i>
   <i type="logical" name="LTCTE"> F  </i>
   <i type="logical" name="LTETE"> F  </i>
   <i type="logical" name="LTRIPLET"> F  </i>
   <i type="logical" name="LFXCEPS"> F  </i>
   <i type="logical" name="LFXHEG"> F  </i>
   <i type="int" name="NATURALO">     2</i>
   <i type="logical" name="LHOLEGF"> F  </i>
   <i type="logical" name="L2ORDER"> F  </i>
   <i type="logical" name="LDMP1"> F  </i>
   <i type="logical" name="LMP2LT"> F  </i>
   <i type="logical" name="LSMP2LT"> F  </i>
   <i type="logical" name="LGWLF"> F  </i>
   <i name="ENCUTGW">     -1.60000002</i>
   <i name="ENCUTGWSOFT">     -1.60000002</i>
   <i name="ENCUTLF">     -1.00000000</i>
   <i type="logical" name="ESF_SPLINES"> F  </i>
   <i name="ESF_CONV">      0.01000000</i>
   <i type="int" name="ESF_NINTER">    15</i>
   <i type="int" name="LMAXMP2">    -1</i>
   <i name="SCISSOR">      0.00000000</i>
   <i type="int" name="NOMEGA">     0</i>
   <i type="int" name="NOMEGAR">     0</i>
   <i type="int" name="NBANDSGW">    -1</i>
   <i type="int" name="NBANDSO">    -1</i>
   <i type="int" name="NBANDSV">    -1</i>
   <i type="int" name="NELMGW">     1</i>
   <i type="int" name="NELMHF">     1</i>
   <i type="int" name="DIM">     3</i>
   <i type="int" name="IESPILON">     4</i>
   <i type="int" name="ANTIRES">     0</i>
   <i name="OMEGAMAX">    -30.00000000</i>
   <i name="OMEGAMIN">    -30.00000000</i>
   <i name="OMEGATL">   -200.00000000</i>
   <i type="int" name="OMEGAGRID">     0</i>
   <i name="CSHIFT">     -0.10000000</i>
   <i type="logical" name="LSELFENERGY"> F  </i>
   <i type="logical" name="LSPECTRAL"> F  </i>
   <i type="logical" name="LSPECTRALGW"> F  </i>
   <i type="logical" name="LSINGLES"> F  </i>
   <i type="logical" name="LFERMIGW"> F  </i>
   <i type="logical" name="ODDONLYGW"> F  </i>
   <i type="logical" name="EVENONLYGW"> F  </i>
   <i type="int" name="NKREDLFX">     1</i>
   <i type="int" name="NKREDLFY">     1</i>
   <i type="int" name="NKREDLFZ">     1</i>
   <i type="int" name="MAXMEM">  2800</i>
   <i type="int" name="TELESCOPE">     0</i>
   <i type="int" name="NTAUPAR">    -1</i>
   <i type="int" name="NOMEGAPAR">    -1</i>
   <i name="DAMP_NEWTON">      0.80000001</i>
   <i name="LAMBDA">      1.00000000</i>
  </separator>
  <separator name="External order field" >
   <i name="OFIELD_KAPPA">      0.00000000</i>
   <v name="OFIELD_K">      0.00000000      0.00000000      0.00000000</v>
   <i name="OFIELD_Q6_NEAR">      0.00000000</i>
   <i name="OFIELD_Q6_FAR">      0.00000000</i>
   <i name="OFIELD_A">      0.00000000</i>
  </separator>
  <separator name="optional k-points parameters" >
   <i type="int" name="KPOINTS_OPT_MODE">     1</i>
   <i type="logical" name="LKPOINTS_OPT"> F  </i>
  </separator>
 </parameters>
 <atominfo>
  <atoms>     143 </atoms>
  <types>       3 </types>
  <array name="atoms" >
   <dimension dim="1">ion</dimension>
   <field type="string">element</field>
   <field type="int">atomtype</field>
   <set>
    <rc><c>Ce</c><c>   1</c></rc>
    <rc><c>Ce</c><c>   1</c></rc>
    <rc><c>Ce</c><c>   1</c></rc>
    <rc><c>Ce</c><c>   1</c></rc>
    <rc><c>Ce</c><c>   1</c></rc>
    <rc><c>Ce</c><c>   1</c></rc>
    <rc><c>Ce</c><c>   1</c></rc>
    <rc><c>Ce</c><c>   1</c></rc>
    <rc><c>Ce</c><c>   1</c></rc>
    <rc><c>Ce</c><c>   1</c></rc>
    <rc><c>Ce</c><c>   1</c></rc>
    <rc><c>Ce</c><c>   1</c></rc>
    <rc><c>Ce</c><c>   1</c></rc>
    <rc><c>Ce</c><c>   1</c></rc>
    <rc><c>Ce</c><c>   1</c></rc>
    <rc><c>Ce</c><c>   1</c></rc>
    <rc><c>Ce</c><c>   1</c></rc>
    <rc><c>Ce</c><c>   1</c></rc>
    <rc><c>Ce</c><c>   1</c></rc>
    <rc><c>Ce</c><c>   1</c></rc>
    <rc><c>Ce</c><c>   1</c></rc>
    <rc><c>Ce</c><c>   1</c></rc>
    <rc><c>Ce</c><c>   1</c></rc>
    <rc><c>Ce</c><c>   1</c></rc>
    <rc><c>Ce</c><c>   1</c></rc>
    <rc><c>Ce</c><c>   1</c></rc>
    <rc><c>Ce</c><c>   1</c></rc>
    <rc><c>Ce</c><c>   1</c></rc>
    <rc><c>Ce</c><c>   1</c></rc>
    <rc><c>Ce</c><c>   1</c></rc>
    <rc><c>Ce</c><c>   1</c></rc>
    <rc><c>Ce</c><c>   1</c></rc>
    <rc><c>O </c><c>   2</c></rc>
    <rc><c>O </c><c>   2</c></rc>
    <rc><c>O </c><c>   2</c></rc>
    <rc><c>O </c><c>   2</c></rc>
    <rc><c>O </c><c>   2</c></rc>
    <rc><c>O </c><c>   2</c></rc>
    <rc><c>O </c><c>   2</c></rc>
    <rc><c>O </c><c>   2</c></rc>
    <rc><c>O </c><c>   2</c></rc>
    <rc><c>O </c><c>   2</c></rc>
    <rc><c>O </c><c>   2</c></rc>
    <rc><c>O </c><c>   2</c></rc>
    <rc><c>O </c><c>   2</c></rc>
    <rc><c>O </c><c>   2</c></rc>
    <rc><c>O </c><c>   2</c></rc>
    <rc><c>O </c><c>   2</c></rc>
    <rc><c>O </c><c>   2</c></rc>
    <rc><c>O </c><c>   2</c></rc>
    <rc><c>O </c><c>   2</c></rc>
    <rc><c>O </c><c>   2</c></rc>
    <rc><c>O </c><c>   2</c></rc>
    <rc><c>O </c><c>   2</c></rc>
    <rc><c>O </c><c>   2</c></rc>
    <rc><c>O </c><c>   2</c></rc>
    <rc><c>O </c><c>   2</c></rc>
    <rc><c>O </c><c>   2</c></rc>
    <rc><c>O </c><c>   2</c></rc>
    <rc><c>O </c><c>   2</c></rc>
    <rc><c>O </c><c>   2</c></rc>
    <rc><c>O </c><c>   2</c></rc>
    <rc><c>O </c><c>   2</c></rc>
    <rc><c>O </c><c>   2</c></rc>
    <rc><c>O </c><c>   2</c></rc>
    <rc><c>O </c><c>   2</c></rc>
    <rc><c>O </c><c>   2</c></rc>
    <rc><c>O </c><c>   2</c></rc>
    <rc><c>O </c><c>   2</c></rc>
    <rc><c>O </c><c>   2</c></rc>
    <rc><c>O </c><c>   2</c></rc>
    <rc><c>O </c><c>   2</c></rc>
    <rc><c>O </c><c>   2</c></rc>
    <rc><c>O </c><c>   2</c></rc>
    <rc><c>O </c><c>   2</c></rc>
    <rc><c>O </c><c>   2</c></rc>
    <rc><c>O </c><c>   2</c></rc>
    <rc><c>O </c><c>   2</c></rc>
    <rc><c>O </c><c>   2</c></rc>
    <rc><c>O </c><c>   2</c></rc>
    <rc><c>O </c><c>   2</c></rc>
    <rc><c>O </c><c>   2</c></rc>
    <rc><c>O </c><c>   2</c></rc>
    <rc><c>O </c><c>   2</c></rc>
    <rc><c>O </c><c>   2</c></rc>
    <rc><c>O </c><c>   2</c></rc>
    <rc><c>O </c><c>   2</c></rc>
    <rc><c>O </c><c>   2</c></rc>
    <rc><c>O </c><c>   2</c></rc>
    <rc><c>O </c><c>   2</c></rc>
    <rc><c>O </c><c>   2</c></rc>
    <rc><c>O </c><c>   2</c></rc>
    <rc><c>O </c><c>   2</c></rc>
    <rc><c>O </c><c>   2</c></rc>
    <rc><c>O </c><c>   2</c></rc>
    <rc><c>O </c><c>   2</c></rc>
    <rc><c>O </c><c>   2</c></rc>
    <rc><c>O </c><c>   2</c></rc>
    <rc><c>O </c><c>   2</c></rc>
    <rc><c>O </c><c>   2</c></rc>
    <rc><c>O </c><c>   2</c></rc>
    <rc><c>O </c><c>   2</c></rc>
    <rc><c>O </c><c>   2</c></rc>
    <rc><c>O </c><c>   2</c></rc>
    <rc><c>O </c><c>   2</c></rc>
    <rc><c>O </c><c>   2</c></rc>
    <rc><c>O </c><c>   2</c></rc>
    <rc><c>O </c><c>   2</c></rc>
    <rc><c>O </c><c>   2</c></rc>
    <rc><c>O </c><c>   2</c></rc>
    <rc><c>O </c><c>   2</c></rc>
    <rc><c>O </c><c>   2</c></rc>
    <rc><c>O </c><c>   2</c></rc>
    <rc><c>O </c><c>   2</c></rc>
    <rc><c>O </c><c>   2</c></rc>
    <rc><c>O </c><c>   2</c></rc>
    <rc><c>O </c><c>   2</c></rc>
    <rc><c>O </c><c>   2</c></rc>
    <rc><c>O </c><c>   2</c></rc>
    <rc><c>O </c><c>   2</c></rc>
    <rc><c>O </c><c>   2</c></rc>
    <rc><c>O </c><c>   2</c></rc>
    <rc><c>O </c><c>   2</c></rc>
    <rc><c>O </c><c>   2</c></rc>
    <rc><c>O </c><c>   2</c></rc>
    <rc><c>O </c><c>   2</c></rc>
    <rc><c>O </c><c>   2</c></rc>
    <rc><c>O </c><c>   2</c></rc>
    <rc><c>O </c><c>   2</c></rc>
    <rc><c>O </c><c>   2</c></rc>
    <rc><c>O </c><c>   2</c></rc>
    <rc><c>O </c><c>   2</c></rc>
    <rc><c>O </c><c>   2</c></rc>
    <rc><c>O </c><c>   2</c></rc>
    <rc><c>O </c><c>   2</c></rc>
    <rc><c>O </c><c>   2</c></rc>
    <rc><c>O </c><c>   2</c></rc>
    <rc><c>Ir</c><c>   3</c></rc>
    <rc><c>Ir</c><c>   3</c></rc>
    <rc><c>Ir</c><c>   3</c></rc>
    <rc><c>Ir</c><c>   3</c></rc>
    <rc><c>Ir</c><c>   3</c></rc>
    <rc><c>Ir</c><c>   3</c></rc>
   </set>
  </array>
  <array name="atomtypes" >
   <dimension dim="1">type</dimension>
   <field type="int">atomspertype</field>
   <field type="string">element</field>
   <field>mass</field>
   <field>valence</field>
   <field type="string">pseudopotential</field>
   <set>
    <rc><c>  32</c><c>Ce</c><c>    140.11500000</c><c>     12.00000000</c><c>  PAW_PBE Ce 23Dec2003                  </c></rc>
    <rc><c> 105</c><c>O </c><c>     16.00000000</c><c>      6.00000000</c><c>  PAW_PBE O 08Apr2002                   </c></rc>
    <rc><c>   6</c><c>Ir</c><c>    192.22000000</c><c>      9.00000000</c><c>  PAW_PBE Ir 06Sep2000                  </c></rc>
   </set>
  </array>
 </atominfo>
 <structure name="initialpos" >
  <crystal>
   <varray name="basis" >
    <v>      15.46430016       0.00000000       0.00000000 </v>
    <v>      -7.73215008      13.39247679       0.00000000 </v>
    <v>       0.00000000       0.00000000      21.04820061 </v>
   </varray>
   <i name="volume">   4359.19349823 </i>
   <varray name="rec_basis" >
    <v>       0.06466507       0.03733439       0.00000000 </v>
    <v>       0.00000000       0.07466879       0.00000000 </v>
    <v>       0.00000000       0.00000000       0.04751000 </v>
   </varray>
  </crystal>
  <varray name="positions" >
   <v>       0.00000000       0.00000000       0.45993000 </v>
   <v>       0.16667000       0.08333000       0.30996000 </v>
   <v>       0.25000000       0.00000000       0.45993000 </v>
   <v>       0.41667000       0.08333000       0.30996000 </v>
   <v>       0.50000000       0.00000000       0.45993000 </v>
   <v>       0.66667000       0.08333000       0.30996000 </v>
   <v>       0.75000000       0.00000000       0.45993000 </v>
   <v>       0.91667000       0.08333000       0.30996000 </v>
   <v>       0.00000000       0.25000000       0.45993000 </v>
   <v>       0.16667000       0.33333000       0.30996000 </v>
   <v>       0.25000000       0.25000000       0.45993000 </v>
   <v>       0.41667000       0.33333000       0.30996000 </v>
   <v>       0.50000000       0.25000000       0.45993000 </v>
   <v>       0.66667000       0.33333000       0.30996000 </v>
   <v>       0.75000000       0.25000000       0.45993000 </v>
   <v>       0.91667000       0.33333000       0.30996000 </v>
   <v>       0.00000000       0.50000000       0.45993000 </v>
   <v>       0.16667000       0.58333000       0.30996000 </v>
   <v>       0.25000000       0.50000000       0.45993000 </v>
   <v>       0.41667000       0.58333000       0.30996000 </v>
   <v>       0.50000000       0.50000000       0.45993000 </v>
   <v>       0.66667000       0.58333000       0.30996000 </v>
   <v>       0.75000000       0.50000000       0.45993000 </v>
   <v>       0.91667000       0.58333000       0.30996000 </v>
   <v>       0.00000000       0.75000000       0.45993000 </v>
   <v>       0.16667000       0.83333000       0.30996000 </v>
   <v>       0.25000000       0.75000000       0.45993000 </v>
   <v>       0.41667000       0.83333000       0.30996000 </v>
   <v>       0.50000000       0.75000000       0.45993000 </v>
   <v>       0.66667000       0.83333000       0.30996000 </v>
   <v>       0.75000000       0.75000000       0.45993000 </v>
   <v>       0.91667000       0.83333000       0.30996000 </v>
   <v>       0.08333000       0.16667000       0.27247000 </v>
   <v>       0.16667000       0.08333000       0.42244000 </v>
   <v>       0.08333000       0.16667000       0.49742000 </v>
   <v>       0.00000000       0.00000000       0.34745000 </v>
   <v>       0.16667000       0.08333000       0.19748000 </v>
   <v>       0.25000000       0.00000000       0.57241000 </v>
   <v>       0.33333000       0.16667000       0.27247000 </v>
   <v>       0.41667000       0.08333000       0.42244000 </v>
   <v>       0.33333000       0.16667000       0.49742000 </v>
   <v>       0.25000000       0.00000000       0.34745000 </v>
   <v>       0.41667000       0.08333000       0.19748000 </v>
   <v>       0.58333000       0.16667000       0.27247000 </v>
   <v>       0.66667000       0.08333000       0.42244000 </v>
   <v>       0.58333000       0.16667000       0.49742000 </v>
   <v>       0.50000000       0.00000000       0.34745000 </v>
   <v>       0.66667000       0.08333000       0.19748000 </v>
   <v>       0.83333000       0.16667000       0.27247000 </v>
   <v>       0.91667000       0.08333000       0.42244000 </v>
   <v>       0.83333000       0.16667000       0.49742000 </v>
   <v>       0.75000000       0.00000000       0.34745000 </v>
   <v>       0.91667000       0.08333000       0.19748000 </v>
   <v>       0.00000000       0.25000000       0.57241000 </v>
   <v>       0.08333000       0.41667000       0.27247000 </v>
   <v>       0.16667000       0.33333000       0.42244000 </v>
   <v>       0.08333000       0.41667000       0.49742000 </v>
   <v>       0.00000000       0.25000000       0.34745000 </v>
   <v>       0.16667000       0.33333000       0.19748000 </v>
   <v>       0.33333000       0.41667000       0.27247000 </v>
   <v>       0.41667000       0.33333000       0.42244000 </v>
   <v>       0.33333000       0.41667000       0.49742000 </v>
   <v>       0.25000000       0.25000000       0.34745000 </v>
   <v>       0.41667000       0.33333000       0.19748000 </v>
   <v>       0.50000000       0.25000000       0.57241000 </v>
   <v>       0.58333000       0.41667000       0.27247000 </v>
   <v>       0.66667000       0.33333000       0.42244000 </v>
   <v>       0.58333000       0.41667000       0.49742000 </v>
   <v>       0.50000000       0.25000000       0.34745000 </v>
   <v>       0.66667000       0.33333000       0.19748000 </v>
   <v>       0.83333000       0.41667000       0.27247000 </v>
   <v>       0.91667000       0.33333000       0.42244000 </v>
   <v>       0.83333000       0.41667000       0.49742000 </v>
   <v>       0.75000000       0.25000000       0.34745000 </v>
   <v>       0.91667000       0.33333000       0.19748000 </v>
   <v>       0.08333000       0.66667000       0.27247000 </v>
   <v>       0.16667000       0.58333000       0.42244000 </v>
   <v>       0.08333000       0.66667000       0.49742000 </v>
   <v>       0.00000000       0.50000000       0.34745000 </v>
   <v>       0.16667000       0.58333000       0.19748000 </v>
   <v>       0.25000000       0.50000000       0.57241000 </v>
   <v>       0.33333000       0.66667000       0.27247000 </v>
   <v>       0.41667000       0.58333000       0.42244000 </v>
   <v>       0.33333000       0.66667000       0.49742000 </v>
   <v>       0.25000000       0.50000000       0.34745000 </v>
   <v>       0.41667000       0.58333000       0.19748000 </v>
   <v>       0.58333000       0.66667000       0.27247000 </v>
   <v>       0.66667000       0.58333000       0.42244000 </v>
   <v>       0.58333000       0.66667000       0.49742000 </v>
   <v>       0.50000000       0.50000000       0.34745000 </v>
   <v>       0.66667000       0.58333000       0.19748000 </v>
   <v>       0.75000000       0.50000000       0.57241000 </v>
   <v>       0.75000000       0.00000000       0.57241000 </v>
   <v>       0.83333000       0.66667000       0.27247000 </v>
   <v>       0.91667000       0.58333000       0.42244000 </v>
   <v>       0.83333000       0.66667000       0.49742000 </v>
   <v>       0.75000000       0.50000000       0.34745000 </v>
   <v>       0.91667000       0.58333000       0.19748000 </v>
   <v>       0.08333000       0.91667000       0.27247000 </v>
   <v>       0.16667000       0.83333000       0.42244000 </v>
   <v>       0.08333000       0.91667000       0.49742000 </v>
   <v>       0.00000000       0.75000000       0.34745000 </v>
   <v>       0.16667000       0.83333000       0.19748000 </v>
   <v>       0.33333000       0.91667000       0.27247000 </v>
   <v>       0.41667000       0.83333000       0.42244000 </v>
   <v>       0.33333000       0.91667000       0.49742000 </v>
   <v>       0.25000000       0.75000000       0.34745000 </v>
   <v>       0.41667000       0.83333000       0.19748000 </v>
   <v>       0.50000000       0.75000000       0.57241000 </v>
   <v>       0.58333000       0.91667000       0.27247000 </v>
   <v>       0.66667000       0.83333000       0.42244000 </v>
   <v>       0.58333000       0.91667000       0.49742000 </v>
   <v>       0.50000000       0.75000000       0.34745000 </v>
   <v>       0.66667000       0.83333000       0.19748000 </v>
   <v>       0.83333000       0.91667000       0.27247000 </v>
   <v>       0.91667000       0.83333000       0.42244000 </v>
   <v>       0.83333000       0.91667000       0.49742000 </v>
   <v>       0.75000000       0.75000000       0.34745000 </v>
   <v>       0.91667000       0.83333000       0.19748000 </v>
   <v>       0.58333000       0.42313000       0.64471000 </v>
   <v>       0.33333000       0.67313000       0.64471000 </v>
   <v>       0.83333000       0.67313000       0.64471000 </v>
   <v>       0.58333000       0.92313000       0.64471000 </v>
   <v>       0.67274000       0.33528000       0.64832000 </v>
   <v>       0.42274000       0.58528000       0.64832000 </v>
   <v>       0.92274000       0.58528000       0.64832000 </v>
   <v>       0.67274000       0.83528000       0.64832000 </v>
   <v>       0.67456000       0.33342000       0.50166000 </v>
   <v>       0.42456000       0.58342000       0.50166000 </v>
   <v>       0.92456000       0.58342000       0.50166000 </v>
   <v>       0.67456000       0.83342000       0.50166000 </v>
   <v>       0.32946000       0.17333000       0.64471000 </v>
   <v>       0.07946000       0.42333000       0.64471000 </v>
   <v>       0.41887000       0.08548000       0.64832000 </v>
   <v>       0.16887000       0.33548000       0.64832000 </v>
   <v>       0.42069000       0.08361000       0.50166000 </v>
   <v>       0.17069000       0.33361000       0.50166000 </v>
   <v>       0.62755000       0.87171000       0.57241000 </v>
   <v>       0.38290000       0.63176000       0.57241000 </v>
   <v>       0.88375000       0.62820000       0.57241000 </v>
   <v>       0.63909000       0.38824000       0.57241000 </v>
   <v>       0.12902000       0.38196000       0.57241000 </v>
   <v>       0.38522000       0.13844000       0.57241000 </v>
  </varray>
  <varray name="selective"  type="logical" >
   <v type="logical" >  T  T  T </v>
   <v type="logical" >  F  F  F </v>
   <v type="logical" >  T  T  T </v>
   <v type="logical" >  F  F  F </v>
   <v type="logical" >  T  T  T </v>
   <v type="logical" >  F  F  F </v>
   <v type="logical" >  T  T  T </v>
   <v type="logical" >  F  F  F </v>
   <v type="logical" >  T  T  T </v>
   <v type="logical" >  F  F  F </v>
   <v type="logical" >  T  T  T </v>
   <v type="logical" >  F  F  F </v>
   <v type="logical" >  T  T  T </v>
   <v type="logical" >  F  F  F </v>
   <v type="logical" >  T  T  T </v>
   <v type="logical" >  F  F  F </v>
   <v type="logical" >  T  T  T </v>
   <v type="logical" >  F  F  F </v>
   <v type="logical" >  T  T  T </v>
   <v type="logical" >  F  F  F </v>
   <v type="logical" >  T  T  T </v>
   <v type="logical" >  F  F  F </v>
   <v type="logical" >  T  T  T </v>
   <v type="logical" >  F  F  F </v>
   <v type="logical" >  T  T  T </v>
   <v type="logical" >  F  F  F </v>
   <v type="logical" >  T  T  T </v>
   <v type="logical" >  F  F  F </v>
   <v type="logical" >  T  T  T </v>
   <v type="logical" >  F  F  F </v>
   <v type="logical" >  T  T  T </v>
   <v type="logical" >  F  F  F </v>
   <v type="logical" >  F  F  F </v>
   <v type="logical" >  T  T  T </v>
   <v type="logical" >  T  T  T </v>
   <v type="logical" >  T  T  T </v>
   <v type="logical" >  F  F  F </v>
   <v type="logical" >  T  T  T </v>
   <v type="logical" >  F  F  F </v>
   <v type="logical" >  T  T  T </v>
   <v type="logical" >  T  T  T </v>
   <v type="logical" >  T  T  T </v>
   <v type="logical" >  F  F  F </v>
   <v type="logical" >  F  F  F </v>
   <v type="logical" >  T  T  T </v>
   <v type="logical" >  T  T  T </v>
   <v type="logical" >  T  T  T </v>
   <v type="logical" >  F  F  F </v>
   <v type="logical" >  F  F  F </v>
   <v type="logical" >  T  T  T </v>
   <v type="logical" >  T  T  T </v>
   <v type="logical" >  T  T  T </v>
   <v type="logical" >  F  F  F </v>
   <v type="logical" >  T  T  T </v>
   <v type="logical" >  F  F  F </v>
   <v type="logical" >  T  T  T </v>
   <v type="logical" >  T  T  T </v>
   <v type="logical" >  T  T  T </v>
   <v type="logical" >  F  F  F </v>
   <v type="logical" >  F  F  F </v>
   <v type="logical" >  T  T  T </v>
   <v type="logical" >  T  T  T </v>
   <v type="logical" >  T  T  T </v>
   <v type="logical" >  F  F  F </v>
   <v type="logical" >  T  T  T </v>
   <v type="logical" >  F  F  F </v>
   <v type="logical" >  T  T  T </v>
   <v type="logical" >  T  T  T </v>
   <v type="logical" >  T  T  T </v>
   <v type="logical" >  F  F  F </v>
   <v type="logical" >  F  F  F </v>
   <v type="logical" >  T  T  T </v>
   <v type="logical" >  T  T  T </v>
   <v type="logical" >  T  T  T </v>
   <v type="logical" >  F  F  F </v>
   <v type="logical" >  F  F  F </v>
   <v type="logical" >  T  T  T </v>
   <v type="logical" >  T  T  T </v>
   <v type="logical" >  T  T  T </v>
   <v type="logical" >  F  F  F </v>
   <v type="logical" >  T  T  T </v>
   <v type="logical" >  F  F  F </v>
   <v type="logical" >  T  T  T </v>
   <v type="logical" >  T  T  T </v>
   <v type="logical" >  T  T  T </v>
   <v type="logical" >  F  F  F </v>
   <v type="logical" >  F  F  F </v>
   <v type="logical" >  T  T  T </v>
   <v type="logical" >  T  T  T </v>
   <v type="logical" >  T  T  T </v>
   <v type="logical" >  F  F  F </v>
   <v type="logical" >  T  T  T </v>
   <v type="logical" >  T  T  T </v>
   <v type="logical" >  F  F  F </v>
   <v type="logical" >  T  T  T </v>
   <v type="logical" >  T  T  T </v>
   <v type="logical" >  T  T  T </v>
   <v type="logical" >  F  F  F </v>
   <v type="logical" >  F  F  F </v>
   <v type="logical" >  T  T  T </v>
   <v type="logical" >  T  T  T </v>
   <v type="logical" >  T  T  T </v>
   <v type="logical" >  F  F  F </v>
   <v type="logical" >  F  F  F </v>
   <v type="logical" >  T  T  T </v>
   <v type="logical" >  T  T  T </v>
   <v type="logical" >  T  T  T </v>
   <v type="logical" >  F  F  F </v>
   <v type="logical" >  T  T  T </v>
   <v type="logical" >  F  F  F </v>
   <v type="logical" >  T  T  T </v>
   <v type="logical" >  T  T  T </v>
   <v type="logical" >  T  T  T </v>
   <v type="logical" >  F  F  F </v>
   <v type="logical" >  F  F  F </v>
   <v type="logical" >  T  T  T </v>
   <v type="logical" >  T  T  T </v>
   <v type="logical" >  T  T  T </v>
   <v type="logical" >  F  F  F </v>
   <v type="logical" >  T  T  T </v>
   <v type="logical" >  T  T  T </v>
   <v type="logical" >  T  T  T </v>
   <v type="logical" >  T  T  T </v>
   <v type="logical" >  T  T  T </v>
   <v type="logical" >  T  T  T </v>
   <v type="logical" >  T  T  T </v>
   <v type="logical" >  T  T  T </v>
   <v type="logical" >  T  T  T </v>
   <v type="logical" >  T  T  T </v>
   <v type="logical" >  T  T  T </v>
   <v type="logical" >  T  T  T </v>
   <v type="logical" >  T  T  T </v>
   <v type="logical" >  T  T  T </v>
   <v type="logical" >  T  T  T </v>
   <v type="logical" >  T  T  T </v>
   <v type="logical" >  T  T  T </v>
   <v type="logical" >  T  T  T </v>
   <v type="logical" >  T  T  T </v>
   <v type="logical" >  T  T  T </v>
   <v type="logical" >  T  T  T </v>
   <v type="logical" >  T  T  T </v>
   <v type="logical" >  T  T  T </v>
   <v type="logical" >  T  T  T </v>
  </varray>
  <nose>
   <v>      -3.00000000       0.00000000       0.00010000       0.00010000 </v>
  </nose>
 </structure>
 <calculation>
  <scstep>
   <time name="dav">    7.99    8.04</time>
   <time name="total">    9.80    9.85</time>
   <energy>
    <i name="alphaZ">   2157.06261810 </i>
    <i name="ewald"> 223723.44270758 </i>
    <i name="hartreedc">-298574.14040604 </i>
    <i name="XCdc">   2961.21736623 </i>
    <i name="pawpsdc">  66915.65148960 </i>
    <i name="pawaedc"> -66050.85958920 </i>
    <i name="eentropy">     -0.04540857 </i>
    <i name="bandstr">   5971.33167115 </i>
    <i name="atom">  82777.01013286 </i>
    <i name="e_fr_energy">  19880.67058170 </i>
    <i name="e_wo_entrp">  19880.71599027 </i>
    <i name="e_0_energy">  19880.69328598 </i>
   </energy>
  </scstep>
  <scstep>
   <time name="dav">    8.65    8.65</time>
   <time name="total">    8.65    8.66</time>
   <energy>
    <i name="e_fr_energy">   6054.24260930 </i>
    <i name="e_wo_entrp">   6054.40849175 </i>
    <i name="e_0_energy">   6054.32555053 </i>
   </energy>
  </scstep>
  <scstep>
   <time name="dav">    9.46    9.47</time>
   <time name="total">    9.46    9.47</time>
   <energy>
    <i name="e_fr_energy">    220.19313435 </i>
    <i name="e_wo_entrp">    220.33506380 </i>
    <i name="e_0_energy">    220.26409907 </i>
   </energy>
  </scstep>
  <scstep>
   <time name="dav">   10.11   10.12</time>
   <time name="total">   10.11   10.12</time>
   <energy>
    <i name="e_fr_energy">  -1127.25957894 </i>
    <i name="e_wo_entrp">  -1127.21987741 </i>
    <i name="e_0_energy">  -1127.23972817 </i>
   </energy>
  </scstep>
  <scstep>
   <time name="dav">   11.57   11.58</time>
   <time name="total">   13.01   13.02</time>
   <energy>
    <i name="e_fr_energy">  -1231.38990912 </i>
    <i name="e_wo_entrp">  -1231.32596794 </i>
    <i name="e_0_energy">  -1231.35793853 </i>
   </energy>
  </scstep>
  <scstep>
   <time name="dav">   12.02   12.02</time>
   <time name="total">   15.16   15.17</time>
   <energy>
    <i name="e_fr_energy">  -2141.72604937 </i>
    <i name="e_wo_entrp">  -2141.54580027 </i>
    <i name="e_0_energy">  -2141.63592482 </i>
   </energy>
  </scstep>
  <scstep>
   <time name="dav">   10.78   10.79</time>
   <time name="total">   13.82   13.83</time>
   <energy>
    <i name="e_fr_energy">  -2254.22205630 </i>
    <i name="e_wo_entrp">  -2254.00735192 </i>
    <i name="e_0_energy">  -2254.11470411 </i>
   </energy>
  </scstep>
  <scstep>
   <time name="dav">   12.67   12.68</time>
   <time name="total">   15.73   15.74</time>
   <energy>
    <i name="e_fr_energy">  -2314.39577112 </i>
    <i name="e_wo_entrp">  -2314.21384516 </i>
    <i name="e_0_energy">  -2314.30480814 </i>
   </energy>
  </scstep>
  <scstep>
   <time name="dav">   11.00   11.00</time>
   <time name="total">   14.02   14.02</time>
   <energy>
    <i name="e_fr_energy">  -2282.30109985 </i>
    <i name="e_wo_entrp">  -2282.17358188 </i>
    <i name="e_0_energy">  -2282.23734086 </i>
   </energy>
  </scstep>
  <scstep>
   <time name="dav">   10.30   10.30</time>
   <time name="total">   13.38   13.39</time>
   <energy>
    <i name="e_fr_energy">  -2107.83960316 </i>
    <i name="e_wo_entrp">  -2107.70389021 </i>
    <i name="e_0_energy">  -2107.77174669 </i>
   </energy>
  </scstep>
  <scstep>
   <time name="dav">   10.48   10.48</time>
   <time name="total">   13.60   13.61</time>
   <energy>
    <i name="e_fr_energy">  -2062.60301458 </i>
    <i name="e_wo_entrp">  -2062.48554207 </i>
    <i name="e_0_energy">  -2062.54427832 </i>
   </energy>
  </scstep>
  <scstep>
   <time name="dav">   11.07   11.07</time>
   <time name="total">   14.19   14.20</time>
   <energy>
    <i name="e_fr_energy">  -2153.23084291 </i>
    <i name="e_wo_entrp">  -2153.09895659 </i>
    <i name="e_0_energy">  -2153.16489975 </i>
   </energy>
  </scstep>
  <scstep>
   <time name="dav">   10.30   10.30</time>
   <time name="total">   13.40   13.40</time>
   <energy>
    <i name="e_fr_energy">  -1998.00465804 </i>
    <i name="e_wo_entrp">  -1997.92049077 </i>
    <i name="e_0_energy">  -1997.96257441 </i>
   </energy>
  </scstep>
  <scstep>
   <time name="dav">   11.05   11.06</time>
   <time name="total">   14.08   14.09</time>
   <energy>
    <i name="e_fr_energy">  -1805.31299843 </i>
    <i name="e_wo_entrp">  -1805.21957805 </i>
    <i name="e_0_energy">  -1805.26628824 </i>
   </energy>
  </scstep>
  <scstep>
   <time name="dav">   11.42   11.43</time>
   <time name="total">   14.49   14.50</time>
   <energy>
    <i name="e_fr_energy">  -1385.41603220 </i>
    <i name="e_wo_entrp">  -1385.24914259 </i>
    <i name="e_0_energy">  -1385.33258739 </i>
   </energy>
  </scstep>
  <scstep>
   <time name="dav">   11.54   11.55</time>
   <time name="total">   14.63   14.64</time>
   <energy>
    <i name="e_fr_energy">  -1248.53090617 </i>
    <i name="e_wo_entrp">  -1248.38976819 </i>
    <i name="e_0_energy">  -1248.46033718 </i>
   </energy>
  </scstep>
  <scstep>
   <time name="dav">   11.64   11.65</time>
   <time name="total">   14.64   14.64</time>
   <energy>
    <i name="e_fr_energy">  -1016.79793882 </i>
    <i name="e_wo_entrp">  -1016.66410702 </i>
    <i name="e_0_energy">  -1016.73102292 </i>
   </energy>
  </scstep>
  <scstep>
   <time name="dav">   10.37   10.37</time>
   <time name="total">   13.46   13.47</time>
   <energy>
    <i name="e_fr_energy">   -961.69180900 </i>
    <i name="e_wo_entrp">   -961.49752386 </i>
    <i name="e_0_energy">   -961.59466643 </i>
   </energy>
  </scstep>
  <scstep>
   <time name="dav">   11.69   11.69</time>
   <time name="total">   14.72   14.73</time>
   <energy>
    <i name="e_fr_energy">   -981.75789632 </i>
    <i name="e_wo_entrp">   -981.65893903 </i>
    <i name="e_0_energy">   -981.70841767 </i>
   </energy>
  </scstep>
  <scstep>
   <time name="dav">    9.52    9.52</time>
   <time name="total">   12.50   12.51</time>
   <energy>
    <i name="e_fr_energy">  -1009.32784991 </i>
    <i name="e_wo_entrp">  -1009.19996251 </i>
    <i name="e_0_energy">  -1009.26390621 </i>
   </energy>
  </scstep>
  <scstep>
   <time name="dav">   10.18   10.18</time>
   <time name="total">   13.20   13.21</time>
   <energy>
    <i name="e_fr_energy">   -871.00157818 </i>
    <i name="e_wo_entrp">   -870.88087165 </i>
    <i name="e_0_energy">   -870.94122492 </i>
   </energy>
  </scstep>
  <scstep>
   <time name="dav">   11.82   11.83</time>
   <time name="total">   14.87   14.88</time>
   <energy>
    <i name="e_fr_energy">   -846.44859559 </i>
    <i name="e_wo_entrp">   -846.36929067 </i>
    <i name="e_0_energy">   -846.40894313 </i>
   </energy>
  </scstep>
  <scstep>
   <time name="dav">   11.73   11.74</time>
   <time name="total">   14.78   14.79</time>
   <energy>
    <i name="e_fr_energy">   -837.34788232 </i>
    <i name="e_wo_entrp">   -837.23755155 </i>
    <i name="e_0_energy">   -837.29271694 </i>
   </energy>
  </scstep>
  <scstep>
   <time name="dav">   11.36   11.36</time>
   <time name="total">   14.39   14.40</time>
   <energy>
    <i name="e_fr_energy">   -840.47402669 </i>
    <i name="e_wo_entrp">   -840.37345222 </i>
    <i name="e_0_energy">   -840.42373945 </i>
   </energy>
  </scstep>
  <scstep>
   <time name="dav">   10.18   10.19</time>
   <time name="total">   13.25   13.26</time>
   <energy>
    <i name="e_fr_energy">   -841.53413677 </i>
    <i name="e_wo_entrp">   -841.43597329 </i>
    <i name="e_0_energy">   -841.48505503 </i>
   </energy>
  </scstep>
  <scstep>
   <time name="dav">   13.21   13.21</time>
   <time name="total">   16.26   16.27</time>
   <energy>
    <i name="e_fr_energy">   -840.64220354 </i>
    <i name="e_wo_entrp">   -840.54082380 </i>
    <i name="e_0_energy">   -840.59151367 </i>
   </energy>
  </scstep>
  <scstep>
   <time name="dav">   11.31   11.31</time>
   <time name="total">   14.41   14.41</time>
   <energy>
    <i name="e_fr_energy">   -857.49842017 </i>
    <i name="e_wo_entrp">   -857.39957617 </i>
    <i name="e_0_energy">   -857.44899817 </i>
   </energy>
  </scstep>
  <scstep>
   <time name="dav">   11.60   11.61</time>
   <time name="total">   14.63   14.64</time>
   <energy>
    <i name="e_fr_energy">   -855.09811171 </i>
    <i name="e_wo_entrp">   -854.98777760 </i>
    <i name="e_0_energy">   -855.04294466 </i>
   </energy>
  </scstep>
  <scstep>
   <time name="dav">   11.89   11.90</time>
   <time name="total">   14.95   14.96</time>
   <energy>
    <i name="e_fr_energy">   -854.17045617 </i>
    <i name="e_wo_entrp">   -854.05301519 </i>
    <i name="e_0_energy">   -854.11173568 </i>
   </energy>
  </scstep>
  <scstep>
   <time name="dav">   11.31   11.32</time>
   <time name="total">   14.43   14.44</time>
   <energy>
    <i name="e_fr_energy">   -864.30898453 </i>
    <i name="e_wo_entrp">   -864.22507490 </i>
    <i name="e_0_energy">   -864.26702972 </i>
   </energy>
  </scstep>
  <scstep>
   <time name="dav">   11.17   11.18</time>
   <time name="total">   14.32   14.32</time>
   <energy>
    <i name="e_fr_energy">   -877.57639401 </i>
    <i name="e_wo_entrp">   -877.45530915 </i>
    <i name="e_0_energy">   -877.51585158 </i>
   </energy>
  </scstep>
  <scstep>
   <time name="dav">   11.54   11.55</time>
   <time name="total">   14.62   14.63</time>
   <energy>
    <i name="e_fr_energy">   -883.11548958 </i>
    <i name="e_wo_entrp">   -883.02517480 </i>
    <i name="e_0_energy">   -883.07033219 </i>
   </energy>
  </scstep>
  <scstep>
   <time name="dav">   10.40   10.41</time>
   <time name="total">   13.39   13.40</time>
   <energy>
    <i name="e_fr_energy">   -883.96942024 </i>
    <i name="e_wo_entrp">   -883.84773369 </i>
    <i name="e_0_energy">   -883.90857696 </i>
   </energy>
  </scstep>
  <scstep>
   <time name="dav">   12.52   12.53</time>
   <time name="total">   15.57   15.58</time>
   <energy>
    <i name="e_fr_energy">   -883.40309658 </i>
    <i name="e_wo_entrp">   -883.29147335 </i>
    <i name="e_0_energy">   -883.34728496 </i>
   </energy>
  </scstep>
  <scstep>
   <time name="dav">   10.66   10.67</time>
   <time name="total">   13.72   13.73</time>
   <energy>
    <i name="e_fr_energy">   -886.94876387 </i>
    <i name="e_wo_entrp">   -886.81692828 </i>
    <i name="e_0_energy">   -886.88284607 </i>
   </energy>
  </scstep>
  <scstep>
   <time name="dav">   10.75   10.76</time>
   <time name="total">   13.84   13.84</time>
   <energy>
    <i name="e_fr_energy">   -896.62313303 </i>
    <i name="e_wo_entrp">   -896.52187977 </i>
    <i name="e_0_energy">   -896.57250640 </i>
   </energy>
  </scstep>
  <scstep>
   <time name="dav">   10.56   10.57</time>
   <time name="total">   13.65   13.65</time>
   <energy>
    <i name="e_fr_energy">   -899.89448050 </i>
    <i name="e_wo_entrp">   -899.76704548 </i>
    <i name="e_0_energy">   -899.83076299 </i>
   </energy>
  </scstep>
  <scstep>
   <time name="dav">   11.83   11.83</time>
   <time name="total">   14.93   14.94</time>
   <energy>
    <i name="e_fr_energy">   -912.35139484 </i>
    <i name="e_wo_entrp">   -912.24133544 </i>
    <i name="e_0_energy">   -912.29636514 </i>
   </energy>
  </scstep>
  <scstep>
   <time name="dav">   11.56   11.56</time>
   <time name="total">   14.62   14.63</time>
   <energy>
    <i name="e_fr_energy">   -910.71334894 </i>
    <i name="e_wo_entrp">   -910.58379143 </i>
    <i name="e_0_energy">   -910.64857018 </i>
   </energy>
  </scstep>
  <scstep>
   <time name="dav">   10.16   10.17</time>
   <time name="total">   13.25   13.26</time>
   <energy>
    <i name="e_fr_energy">   -910.37114132 </i>
    <i name="e_wo_entrp">   -910.25523877 </i>
    <i name="e_0_energy">   -910.31319005 </i>
   </energy>
  </scstep>
  <scstep>
   <time name="dav">   12.75   12.76</time>
   <time name="total">   15.80   15.81</time>
   <energy>
    <i name="e_fr_energy">   -921.06776566 </i>
    <i name="e_wo_entrp">   -920.96498001 </i>
    <i name="e_0_energy">   -921.01637284 </i>
   </energy>
  </scstep>
  <scstep>
   <time name="dav">   11.84   11.84</time>
   <time name="total">   14.93   14.94</time>
   <energy>
    <i name="e_fr_energy">   -925.30803678 </i>
    <i name="e_wo_entrp">   -925.19592332 </i>
    <i name="e_0_energy">   -925.25198005 </i>
   </energy>
  </scstep>
  <scstep>
   <time name="dav">   11.66   11.67</time>
   <time name="total">   14.74   14.75</time>
   <energy>
    <i name="e_fr_energy">   -927.88552565 </i>
    <i name="e_wo_entrp">   -927.79100109 </i>
    <i name="e_0_energy">   -927.83826337 </i>
   </energy>
  </scstep>
  <scstep>
   <time name="dav">   12.06   12.07</time>
   <time name="total">   15.11   15.12</time>
   <energy>
    <i name="e_fr_energy">   -928.34802066 </i>
    <i name="e_wo_entrp">   -928.23369847 </i>
    <i name="e_0_energy">   -928.29085957 </i>
   </energy>
  </scstep>
  <scstep>
   <time name="dav">   11.18   11.19</time>
   <time name="total">   14.24   14.25</time>
   <energy>
    <i name="e_fr_energy">   -927.22202257 </i>
    <i name="e_wo_entrp">   -927.11222353 </i>
    <i name="e_0_energy">   -927.16712305 </i>
   </energy>
  </scstep>
  <scstep>
   <time name="dav">   10.75   10.76</time>
   <time name="total">   13.84   13.85</time>
   <energy>
    <i name="e_fr_energy">   -922.57751127 </i>
    <i name="e_wo_entrp">   -922.45064828 </i>
    <i name="e_0_energy">   -922.51407977 </i>
   </energy>
  </scstep>
  <scstep>
   <time name="dav">   10.87   10.88</time>
   <time name="total">   13.98   13.98</time>
   <energy>
    <i name="e_fr_energy">   -921.09076031 </i>
    <i name="e_wo_entrp">   -920.96954289 </i>
    <i name="e_0_energy">   -921.03015160 </i>
   </energy>
  </scstep>
  <scstep>
   <time name="dav">   10.76   10.76</time>
   <time name="total">   13.78   13.79</time>
   <energy>
    <i name="e_fr_energy">   -921.21194627 </i>
    <i name="e_wo_entrp">   -921.10030276 </i>
    <i name="e_0_energy">   -921.15612451 </i>
   </energy>
  </scstep>
  <scstep>
   <time name="dav">    9.31    9.32</time>
   <time name="total">   12.40   12.41</time>
   <energy>
    <i name="e_fr_energy">   -921.19223756 </i>
    <i name="e_wo_entrp">   -921.08007086 </i>
    <i name="e_0_energy">   -921.13615421 </i>
   </energy>
  </scstep>
  <scstep>
   <time name="dav">   11.64   11.65</time>
   <time name="total">   14.75   14.76</time>
   <energy>
    <i name="e_fr_energy">   -920.99140370 </i>
    <i name="e_wo_entrp">   -920.87953080 </i>
    <i name="e_0_energy">   -920.93546725 </i>
   </energy>
  </scstep>
  <scstep>
   <time name="dav">   11.46   11.47</time>
   <time name="total">   14.50   14.51</time>
   <energy>
    <i name="e_fr_energy">  -1068.66249442 </i>
    <i name="e_wo_entrp">  -1068.52712848 </i>
    <i name="e_0_energy">  -1068.59481145 </i>
   </energy>
  </scstep>
  <scstep>
   <time name="dav">   11.25   11.25</time>
   <time name="total">   14.24   14.25</time>
   <energy>
    <i name="e_fr_energy">  -1144.74178225 </i>
    <i name="e_wo_entrp">  -1144.61835798 </i>
    <i name="e_0_energy">  -1144.68007011 </i>
   </energy>
  </scstep>
  <scstep>
   <time name="dav">   10.59   10.59</time>
   <time name="total">   13.65   13.66</time>
   <energy>
    <i name="e_fr_energy">   -899.18597820 </i>
    <i name="e_wo_entrp">   -899.01620852 </i>
    <i name="e_0_energy">   -899.10109336 </i>
   </energy>
  </scstep>
  <scstep>
   <time name="dav">   10.77   10.77</time>
   <time name="total">   13.85   13.86</time>
   <energy>
    <i name="e_fr_energy">   -924.73702588 </i>
    <i name="e_wo_entrp">   -924.58472152 </i>
    <i name="e_0_energy">   -924.66087370 </i>
   </energy>
  </scstep>
  <scstep>
   <time name="dav">   10.63   10.64</time>
   <time name="total">   13.68   13.69</time>
   <energy>
    <i name="e_fr_energy">   -887.72704306 </i>
    <i name="e_wo_entrp">   -887.59359823 </i>
    <i name="e_0_energy">   -887.66032065 </i>
   </energy>
  </scstep>
  <scstep>
   <time name="dav">   12.13   12.14</time>
   <time name="total">   15.21   15.22</time>
   <energy>
    <i name="e_fr_energy">   -998.87719212 </i>
    <i name="e_wo_entrp">   -998.76528963 </i>
    <i name="e_0_energy">   -998.82124088 </i>
   </energy>
  </scstep>
  <scstep>
   <time name="dav">   11.44   11.44</time>
   <time name="total">   14.50   14.50</time>
   <energy>
    <i name="e_fr_energy">   -986.40700005 </i>
    <i name="e_wo_entrp">   -986.26324854 </i>
    <i name="e_0_energy">   -986.33512429 </i>
   </energy>
  </scstep>
  <scstep>
   <time name="dav">   10.67   10.67</time>
   <time name="total">   13.72   13.72</time>
   <energy>
    <i name="e_fr_energy">   -910.91610272 </i>
    <i name="e_wo_entrp">   -910.80271712 </i>
    <i name="e_0_energy">   -910.85940992 </i>
   </energy>
  </scstep>
  <scstep>
   <time name="dav">   10.75   10.76</time>
   <time name="total">   13.78   13.79</time>
   <energy>
    <i name="e_fr_energy">   -974.40793131 </i>
    <i name="e_wo_entrp">   -974.26001287 </i>
    <i name="e_0_energy">   -974.33397209 </i>
   </energy>
  </scstep>
  <scstep>
   <time name="dav">   10.94   10.95</time>
   <time name="total">   13.93   13.94</time>
   <energy>
    <i name="e_fr_energy">   -908.21751958 </i>
    <i name="e_wo_entrp">   -908.08000097 </i>
    <i name="e_0_energy">   -908.14876027 </i>
   </energy>
  </scstep>
  <scstep>
   <time name="dav">   11.06   11.07</time>
   <time name="total">   14.14   14.15</time>
   <energy>
    <i name="e_fr_energy">   -936.52072874 </i>
    <i name="e_wo_entrp">   -936.44414531 </i>
    <i name="e_0_energy">   -936.48243703 </i>
   </energy>
  </scstep>
  <scstep>
   <time name="dav">   10.75   10.76</time>
   <time name="total">   13.81   13.81</time>
   <energy>
    <i name="e_fr_energy">   -952.78750483 </i>
    <i name="e_wo_entrp">   -952.68574878 </i>
    <i name="e_0_energy">   -952.73662680 </i>
   </energy>
  </scstep>
  <scstep>
   <time name="dav">   11.26   11.26</time>
   <time name="total">   14.33   14.34</time>
   <energy>
    <i name="e_fr_energy">   -928.57435017 </i>
    <i name="e_wo_entrp">   -928.40902614 </i>
    <i name="e_0_energy">   -928.49168816 </i>
   </energy>
  </scstep>
  <scstep>
   <time name="dav">   11.25   11.26</time>
   <time name="total">   14.32   14.32</time>
   <energy>
    <i name="e_fr_energy">   -898.20632067 </i>
    <i name="e_wo_entrp">   -898.12530851 </i>
    <i name="e_0_energy">   -898.16581459 </i>
   </energy>
  </scstep>
  <scstep>
   <time name="dav">   11.43   11.44</time>
   <time name="total">   14.49   14.50</time>
   <energy>
    <i name="e_fr_energy">   -885.85753779 </i>
    <i name="e_wo_entrp">   -885.72879736 </i>
    <i name="e_0_energy">   -885.79316757 </i>
   </energy>
  </scstep>
  <scstep>
   <time name="dav">   11.54   11.55</time>
   <time name="total">   14.57   14.57</time>
   <energy>
    <i name="e_fr_energy">   -901.85976657 </i>
    <i name="e_wo_entrp">   -901.71802839 </i>
    <i name="e_0_energy">   -901.78889748 </i>
   </energy>
  </scstep>
  <scstep>
   <time name="dav">   10.37   10.37</time>
   <time name="total">   13.41   13.42</time>
   <energy>
    <i name="e_fr_energy">   -870.10445822 </i>
    <i name="e_wo_entrp">   -869.98572673 </i>
    <i name="e_0_energy">   -870.04509247 </i>
   </energy>
  </scstep>
  <scstep>
   <time name="dav">   10.75   10.76</time>
   <time name="total">   13.77   13.78</time>
   <energy>
    <i name="e_fr_energy">   -848.53243834 </i>
    <i name="e_wo_entrp">   -848.44214899 </i>
    <i name="e_0_energy">   -848.48729366 </i>
   </energy>
  </scstep>
  <scstep>
   <time name="dav">   10.97   10.98</time>
   <time name="total">   13.96   13.97</time>
   <energy>
    <i name="e_fr_energy">   -841.03006745 </i>
    <i name="e_wo_entrp">   -840.87869152 </i>
    <i name="e_0_energy">   -840.95437949 </i>
   </energy>
  </scstep>
  <scstep>
   <time name="dav">   11.32   11.32</time>
   <time name="total">   14.45   14.45</time>
   <energy>
    <i name="e_fr_energy">   -830.36690914 </i>
    <i name="e_wo_entrp">   -830.22669424 </i>
    <i name="e_0_energy">   -830.29680169 </i>
   </energy>
  </scstep>
  <scstep>
   <time name="dav">   11.45   11.45</time>
   <time name="total">   14.46   14.47</time>
   <energy>
    <i name="e_fr_energy">   -846.53071386 </i>
    <i name="e_wo_entrp">   -846.39874033 </i>
    <i name="e_0_energy">   -846.46472709 </i>
   </energy>
  </scstep>
  <scstep>
   <time name="dav">   11.16   11.17</time>
   <time name="total">   14.27   14.28</time>
   <energy>
    <i name="e_fr_energy">   -853.61544313 </i>
    <i name="e_wo_entrp">   -853.51781587 </i>
    <i name="e_0_energy">   -853.56662950 </i>
   </energy>
  </scstep>
  <scstep>
   <time name="dav">   10.66   10.67</time>
   <time name="total">   13.68   13.69</time>
   <energy>
    <i name="e_fr_energy">   -838.65837004 </i>
    <i name="e_wo_entrp">   -838.54441966 </i>
    <i name="e_0_energy">   -838.60139485 </i>
   </energy>
  </scstep>
  <scstep>
   <time name="dav">   11.11   11.12</time>
   <time name="total">   14.16   14.17</time>
   <energy>
    <i name="e_fr_energy">   -830.99219015 </i>
    <i name="e_wo_entrp">   -830.86036665 </i>
    <i name="e_0_energy">   -830.92627840 </i>
   </energy>
  </scstep>
  <scstep>
   <time name="dav">   10.32   10.33</time>
   <time name="total">   13.44   13.44</time>
   <energy>
    <i name="e_fr_energy">   -829.74101769 </i>
    <i name="e_wo_entrp">   -829.58928650 </i>
    <i name="e_0_energy">   -829.66515210 </i>
   </energy>
  </scstep>
  <scstep>
   <time name="dav">   11.14   11.14</time>
   <time name="total">   14.19   14.20</time>
   <energy>
    <i name="e_fr_energy">   -843.84393765 </i>
    <i name="e_wo_entrp">   -843.72926165 </i>
    <i name="e_0_energy">   -843.78659965 </i>
   </energy>
  </scstep>
  <scstep>
   <time name="dav">   10.73   10.74</time>
   <time name="total">   13.79   13.80</time>
   <energy>
    <i name="e_fr_energy">   -836.45315710 </i>
    <i name="e_wo_entrp">   -836.33062349 </i>
    <i name="e_0_energy">   -836.39189030 </i>
   </energy>
  </scstep>
  <scstep>
   <time name="dav">   11.01   11.02</time>
   <time name="total">   14.01   14.02</time>
   <energy>
    <i name="e_fr_energy">   -836.73111913 </i>
    <i name="e_wo_entrp">   -836.60604658 </i>
    <i name="e_0_energy">   -836.66858286 </i>
   </energy>
  </scstep>
  <scstep>
   <time name="dav">   11.91   11.91</time>
   <time name="total">   14.93   14.94</time>
   <energy>
    <i name="e_fr_energy">   -839.58710798 </i>
    <i name="e_wo_entrp">   -839.47589266 </i>
    <i name="e_0_energy">   -839.53150032 </i>
   </energy>
  </scstep>
  <scstep>
   <time name="dav">   11.70   11.71</time>
   <time name="total">   14.74   14.75</time>
   <energy>
    <i name="e_fr_energy">   -842.90825351 </i>
    <i name="e_wo_entrp">   -842.80369590 </i>
    <i name="e_0_energy">   -842.85597470 </i>
   </energy>
  </scstep>
  <scstep>
   <time name="dav">   11.02   11.03</time>
   <time name="total">   14.07   14.07</time>
   <energy>
    <i name="e_fr_energy">   -838.45781848 </i>
    <i name="e_wo_entrp">   -838.34215928 </i>
    <i name="e_0_energy">   -838.39998888 </i>
   </energy>
  </scstep>
  <scstep>
   <time name="dav">   12.20   12.20</time>
   <time name="total">   15.24   15.24</time>
   <energy>
    <i name="e_fr_energy">   -817.05674278 </i>
    <i name="e_wo_entrp">   -816.92181377 </i>
    <i name="e_0_energy">   -816.98927828 </i>
   </energy>
  </scstep>
  <scstep>
   <time name="dav">   11.12   11.12</time>
   <time name="total">   14.14   14.15</time>
   <energy>
[...]
    <v>       0.75070357       0.75079861       0.46209487 </v>
    <v>       0.91667000       0.83333000       0.30996000 </v>
    <v>       0.08333000       0.16667000       0.27247000 </v>
    <v>       0.17702641       0.08128782       0.42119376 </v>
    <v>       0.07740377       0.14539053       0.49210561 </v>
    <v>       0.00100661       0.99951141       0.34965471 </v>
    <v>       0.16667000       0.08333000       0.19748000 </v>
    <v>       0.24216410       0.99187111       0.58915799 </v>
    <v>       0.33333000       0.16667000       0.27247000 </v>
    <v>       0.41225072       0.08421466       0.41981218 </v>
    <v>       0.32295225       0.16086412       0.51133598 </v>
    <v>       0.24956600       0.99684327       0.34666652 </v>
    <v>       0.41667000       0.08333000       0.19748000 </v>
    <v>       0.58333000       0.16667000       0.27247000 </v>
    <v>       0.66379563       0.07308100       0.42042705 </v>
    <v>       0.59336598       0.16550433       0.48348688 </v>
    <v>       0.49764343       0.99879504       0.34969753 </v>
    <v>       0.66667000       0.08333000       0.19748000 </v>
    <v>       0.83333000       0.16667000       0.27247000 </v>
    <v>       0.91166961       0.08128015       0.42225881 </v>
    <v>       0.82671151       0.16591842       0.49594989 </v>
    <v>       0.75206802       0.00108111       0.34592738 </v>
    <v>       0.91667000       0.08333000       0.19748000 </v>
    <v>       0.00307153       0.26488513       0.58168499 </v>
    <v>       0.08333000       0.41667000       0.27247000 </v>
    <v>       0.15437732       0.33925769       0.43799372 </v>
    <v>       0.07595869       0.42842828       0.51899135 </v>
    <v>       0.00585962       0.24927228       0.35053431 </v>
    <v>       0.16667000       0.33333000       0.19748000 </v>
    <v>       0.33333000       0.41667000       0.27247000 </v>
    <v>       0.42184639       0.31912052       0.42292777 </v>
    <v>       0.34521912       0.40851613       0.47952212 </v>
    <v>       0.24694068       0.25507580       0.35430972 </v>
    <v>       0.41667000       0.33333000       0.19748000 </v>
    <v>       0.49765966       0.25340803       0.58569210 </v>
    <v>       0.58333000       0.41667000       0.27247000 </v>
    <v>       0.66492287       0.33781695       0.41900985 </v>
    <v>       0.57973875       0.41397084       0.50851702 </v>
    <v>       0.50220413       0.24759304       0.34697357 </v>
    <v>       0.66667000       0.33333000       0.19748000 </v>
    <v>       0.83333000       0.41667000       0.27247000 </v>
    <v>       0.92947871       0.33447866       0.42329257 </v>
    <v>       0.84390964       0.41862356       0.48468922 </v>
    <v>       0.75284566       0.25057365       0.34999817 </v>
    <v>       0.91667000       0.33333000       0.19748000 </v>
    <v>       0.08333000       0.66667000       0.27247000 </v>
    <v>       0.17235497       0.57832920       0.42576407 </v>
    <v>       0.09672014       0.67287910       0.49189475 </v>
    <v>       0.00222793       0.50285350       0.34930241 </v>
    <v>       0.16667000       0.58333000       0.19748000 </v>
    <v>       0.24001306       0.50566201       0.57884970 </v>
    <v>       0.33333000       0.66667000       0.27247000 </v>
    <v>       0.41629597       0.59182891       0.41854947 </v>
    <v>       0.33795389       0.67402890       0.50860627 </v>
    <v>       0.24870296       0.49297755       0.35101455 </v>
    <v>       0.41667000       0.58333000       0.19748000 </v>
    <v>       0.58333000       0.66667000       0.27247000 </v>
    <v>       0.67659594       0.57774640       0.42459889 </v>
    <v>       0.58658236       0.65956165       0.48211148 </v>
    <v>       0.50040166       0.49822375       0.35170976 </v>
    <v>       0.66667000       0.58333000       0.19748000 </v>
    <v>       0.74864914       0.50870227       0.58288284 </v>
    <v>       0.75609235       0.00878135       0.59042941 </v>
    <v>       0.83333000       0.66667000       0.27247000 </v>
    <v>       0.91731494       0.58882784       0.42020725 </v>
    <v>       0.83628088       0.67589976       0.51157866 </v>
    <v>       0.75326280       0.49945264       0.34728793 </v>
    <v>       0.91667000       0.58333000       0.19748000 </v>
    <v>       0.08333000       0.91667000       0.27247000 </v>
    <v>       0.16750689       0.83370277       0.42092920 </v>
    <v>       0.08037298       0.90985054       0.49562725 </v>
    <v>       0.00160654       0.75095253       0.34849037 </v>
    <v>       0.16667000       0.83333000       0.19748000 </v>
    <v>       0.33333000       0.91667000       0.27247000 </v>
    <v>       0.42445837       0.83098994       0.42420769 </v>
    <v>       0.33360658       0.91060754       0.49190078 </v>
    <v>       0.25124287       0.74834705       0.34969732 </v>
    <v>       0.41667000       0.83333000       0.19748000 </v>
    <v>       0.49691179       0.75062305       0.58434455 </v>
    <v>       0.58333000       0.91667000       0.27247000 </v>
    <v>       0.66699220       0.83902843       0.41946166 </v>
    <v>       0.58513516       0.92475430       0.50892323 </v>
    <v>       0.50290436       0.75125271       0.34719962 </v>
    <v>       0.66667000       0.83333000       0.19748000 </v>
    <v>       0.83333000       0.91667000       0.27247000 </v>
    <v>       0.91358005       0.82397528       0.42187972 </v>
    <v>       0.83950219       0.91667389       0.49115657 </v>
    <v>       0.74795905       0.74853256       0.35018270 </v>
    <v>       0.91667000       0.83333000       0.19748000 </v>
    <v>       0.57965594       0.44459540       0.63144294 </v>
    <v>       0.30671083       0.67059799       0.63297999 </v>
    <v>       0.85046132       0.70974668       0.63393634 </v>
    <v>       0.55838891       0.92309234       0.63398776 </v>
    <v>       0.66100703       0.32644872       0.66472223 </v>
    <v>       0.42728685       0.58988597       0.66375769 </v>
    <v>       0.92216430       0.58530722       0.66574490 </v>
    <v>       0.67502589       0.83684141       0.66343670 </v>
    <v>       0.68034272       0.33503246       0.53995503 </v>
    <v>       0.41540709       0.56872100       0.53873905 </v>
    <v>       0.94159781       0.60096071       0.54174772 </v>
    <v>       0.66466322       0.82565048       0.53874456 </v>
    <v>       0.32443583       0.18953148       0.63419246 </v>
    <v>       0.06499138       0.43907366       0.65400426 </v>
    <v>       0.40708075       0.07014987       0.66461296 </v>
    <v>       0.17935752       0.33781048       0.62838470 </v>
    <v>       0.42923504       0.08823718       0.53946139 </v>
    <v>       0.16812027       0.33156707       0.50772337 </v>
    <v>       0.64295935       0.89192610       0.60163716 </v>
    <v>       0.38341288       0.63221343       0.60023755 </v>
    <v>       0.86744125       0.61668442       0.60224260 </v>
    <v>       0.61598093       0.36615941       0.59973562 </v>
    <v>       0.11022356       0.39052072       0.59742606 </v>
    <v>       0.35806017       0.10736760       0.60096386 </v>
   </varray>
  </structure>
  <varray name="forces" >
   <v>       0.05441028       0.14601687       0.17597969 </v>
   <v>       0.27577782      -0.11391930       0.14954231 </v>
   <v>      -0.01745828      -0.39917610       0.06104485 </v>
   <v>      -0.17583578       0.01323455       0.02011350 </v>
   <v>      -0.06430598       0.27903010       0.10066728 </v>
   <v>       0.15372574      -0.31125768       0.18423751 </v>
   <v>       0.16937653       0.26207152       0.05907701 </v>
   <v>      -0.07173095       0.11942098       0.22164262 </v>
   <v>      -0.01940387      -0.16156513      -0.06163442 </v>
   <v>      -0.25805292      -0.03509222      -0.44487787 </v>
   <v>      -0.32771149       0.14460960       0.06549008 </v>
   <v>       0.35179307      -0.30907719       0.34229746 </v>
   <v>       0.29448565       0.26856922       0.31472567 </v>
   <v>      -0.09903446       0.03431510      -0.04497844 </v>
   <v>      -0.16647873      -0.19468473      -0.00284868 </v>
   <v>       0.52268032      -0.12099102       0.20562229 </v>
   <v>      -0.13384764      -0.20029408       0.14637999 </v>
   <v>       0.44809142      -0.12470814       0.15472016 </v>
   <v>       0.03037824      -0.29450665      -0.18109117 </v>
   <v>      -0.18703134       0.14825367       0.07192138 </v>
   <v>       0.04453841      -0.15169007       0.07285905 </v>
   <v>       0.38909441      -0.06053492       0.17311474 </v>
   <v>      -0.32961970      -0.24264598       0.06719069 </v>
   <v>      -0.13310519       0.21918879      -0.37755027 </v>
   <v>      -0.08134611       0.55380308       0.00854815 </v>
   <v>      -0.03846981       0.02214548       0.12712295 </v>
   <v>      -0.28698227       0.23803288      -0.08975085 </v>
   <v>       0.44254664      -0.09790788       0.06568561 </v>
   <v>      -0.10199649      -0.12855201       0.13947121 </v>
   <v>      -0.03621458       0.22831028      -0.17749784 </v>
   <v>       0.22894351       0.24780398      -0.11485518 </v>
   <v>       0.00895020      -0.24678464       0.07774567 </v>
   <v>       0.24223925       0.01421989      -0.22507247 </v>
   <v>      -0.17332485       0.05976373      -0.08316459 </v>
   <v>       0.03073347       0.15800963       0.01120015 </v>
   <v>       0.07107984      -0.05851516      -0.11083889 </v>
   <v>      -0.03614408      -0.04689163      -0.07575588 </v>
   <v>       0.19439526       0.47231156      -0.13120409 </v>
   <v>      -0.33028397       0.22709109       0.03268935 </v>
   <v>      -0.01829583      -0.16720921      -0.07140139 </v>
   <v>      -0.02472544      -0.01521200      -0.07314735 </v>
   <v>      -0.08802253       0.07568645      -0.01971536 </v>
   <v>      -0.01639479      -0.05019634      -0.24630269 </v>
   <v>       0.29825203      -0.06412084      -0.26286259 </v>
   <v>       0.14308781       0.06001535      -0.12600896 </v>
   <v>       0.00598000      -0.10227621       0.13853166 </v>
   <v>      -0.00142020      -0.07494424      -0.02302112 </v>
   <v>      -0.07367175       0.03247406      -0.14185418 </v>
   <v>       0.10116905       0.28846717      -0.10974414 </v>
   <v>      -0.07863667       0.11107714       0.10245594 </v>
   <v>       0.04634871      -0.04760535       0.05533215 </v>
   <v>      -0.07189134      -0.02216942       0.09864133 </v>
   <v>      -0.01931388       0.01677640      -0.14058420 </v>
   <v>      -0.04280772       0.41166418       0.16138114 </v>
   <v>      -0.03319594       0.03411692      -0.08388272 </v>
   <v>       0.23181503       0.05310144       0.56698792 </v>
   <v>      -0.17343864       0.14188079      -0.00891065 </v>
   <v>      -0.02044709       0.04178768      -0.08069937 </v>
   <v>       0.00209556      -0.01683397       0.10252711 </v>
   <v>       0.16230979      -0.12758998      -0.20705647 </v>
   <v>      -0.18881486      -0.04040353      -0.16705115 </v>
   <v>      -0.19006942       0.03766516      -0.07559979 </v>
   <v>       0.10307215      -0.12144993      -0.10494886 </v>
   <v>      -0.02254831       0.03110779       0.03100137 </v>
   <v>      -0.14830652      -0.00776025      -0.05622591 </v>
   <v>      -0.19067450       0.08356663      -0.06437839 </v>
   <v>       0.07983245       0.01242892      -0.09858527 </v>
   <v>      -0.00806757       0.18824889       0.02888407 </v>
   <v>      -0.06572010       0.02289332      -0.19963415 </v>
   <v>       0.01404923      -0.06518722      -0.25094927 </v>
   <v>       0.31716933      -0.08754266      -0.15923947 </v>
   <v>      -0.11713126       0.03729271      -0.01689164 </v>
   <v>       0.29141212       0.22838516       0.13589159 </v>
   <v>       0.02701029       0.01912158       0.07673035 </v>
   <v>       0.00125891      -0.01239426       0.01846863 </v>
   <v>       0.19362051      -0.05139213      -0.16298884 </v>
   <v>       0.02166120       0.06877991      -0.16247239 </v>
   <v>       0.30240816      -0.08643664      -0.01991999 </v>
   <v>       0.07515819      -0.05110875       0.08370367 </v>
   <v>       0.00145381       0.00346154      -0.06904420 </v>
   <v>      -0.18091040       0.12048261      -0.00251461 </v>
   <v>      -0.04662767      -0.19949476      -0.02667042 </v>
   <v>       0.00406356      -0.02070894      -0.00039295 </v>
   <v>       0.04442087       0.06954371      -0.02609226 </v>
   <v>      -0.05019380       0.00765743      -0.16817979 </v>
   <v>       0.03367735       0.01025997      -0.09647052 </v>
   <v>       0.11661618      -0.28268007      -0.21235202 </v>
   <v>      -0.14350843       0.01737617      -0.12969244 </v>
   <v>       0.13477980       0.12595932       0.26671725 </v>
   <v>       0.04114080      -0.00657135      -0.14973446 </v>
   <v>      -0.03798469       0.00625705       0.02211967 </v>
   <v>      -0.04983437      -0.06430110       0.02442855 </v>
   <v>      -0.25255350      -0.35525670      -0.06395262 </v>
   <v>      -0.10809735       0.03539808      -0.11056403 </v>
   <v>       0.11334056      -0.08523648       0.03437198 </v>
   <v>       0.19114343      -0.30714396       0.23434903 </v>
   <v>      -0.10782311       0.07700187      -0.07227399 </v>
   <v>      -0.00226147      -0.01187836      -0.14482373 </v>
   <v>      -0.17196470       0.11300951      -0.22287951 </v>
   <v>       0.10602272      -0.02049276       0.04953611 </v>
   <v>       0.04012435      -0.06158855       0.02363466 </v>
   <v>       0.00398108       0.02287127      -0.16200018 </v>
   <v>       0.06288260      -0.00938012      -0.17282815 </v>
   <v>       0.14211133      -0.18376625      -0.34354144 </v>
   <v>      -0.07310765       0.05957900      -0.10354267 </v>
   <v>       0.08748222      -0.24599946       0.07795003 </v>
   <v>       0.07047864      -0.01940046       0.06090737 </v>
   <v>       0.00097308       0.03721133      -0.03305251 </v>
   <v>       0.07033251       0.31164874      -0.00362330 </v>
   <v>      -0.18406630       0.07166895      -0.21825575 </v>
   <v>      -0.02601839      -0.10057116      -0.08267788 </v>
   <v>      -0.02461571       0.05477529       0.03479666 </v>
   <v>      -0.11014941      -0.02601453      -0.05781190 </v>
   <v>      -0.01570884      -0.00480002      -0.19769204 </v>
   <v>       0.22438621      -0.06446121      -0.18848034 </v>
   <v>      -0.01670773      -0.03160590      -0.13410700 </v>
   <v>      -0.03895065      -0.19844177       0.20749214 </v>
   <v>       0.00807932      -0.10415562       0.02392438 </v>
   <v>       0.02445122       0.05610513      -0.10364128 </v>
   <v>      -1.06400183       0.94857716       0.65360154 </v>
   <v>      -0.88831838       0.37285170       0.49247731 </v>
   <v>      -0.01079018       0.32771919       0.08804722 </v>
   <v>       0.33539643       0.12913674       0.00528904 </v>
   <v>      -0.37101905       0.26191835       0.04870481 </v>
   <v>      -0.36293784       0.11093652       0.12682216 </v>
   <v>      -0.53549165      -0.06760482      -0.19540018 </v>
   <v>      -0.23185747       0.25804280       0.25914628 </v>
   <v>       0.16104244       0.22563173       0.36782682 </v>
   <v>      -0.26988935      -0.00980197       0.51652154 </v>
   <v>      -0.32047167       0.40999999       0.76244543 </v>
   <v>       0.26397071      -0.19410846       0.09852531 </v>
   <v>       0.03255570      -0.23856535       0.01939172 </v>
   <v>       0.55040783      -0.26752516      -0.07135196 </v>
   <v>      -0.43879800       0.24993442      -0.03849327 </v>
   <v>      -0.08184726      -0.09095176       0.51783551 </v>
   <v>      -0.04659732      -0.08809978       0.33646963 </v>
   <v>      -0.01458063       0.02436971      -0.61390395 </v>
   <v>      -0.27578586       0.29029926       0.25561111 </v>
   <v>       0.93376050      -0.74861060      -0.52416900 </v>
   <v>       0.62758106       0.22540436      -0.20165686 </v>
   <v>       0.91393649      -1.43918711      -0.44037352 </v>
   <v>      -0.50130365      -0.21144676      -0.03992940 </v>
   <v>       0.00520376      -0.61734978       0.41879757 </v>
  </varray>
  <varray name="stress" >
   <v>      -2.69958556       2.41293106      -5.55790147 </v>
   <v>       2.41293116      -0.50066883       2.41319029 </v>
   <v>      -5.55795152       2.41315558       8.65307842 </v>
  </varray>
  <energy>
   <i name="e_fr_energy">   -971.62170519 </i>
   <i name="e_wo_entrp">   -971.59641549 </i>
   <i name="e_0_energy">   -971.60906034 </i>
  </energy>
  <time name="totalsc">  378.84  379.10</time>
 </calculation>
 <calculation>
  <scstep>
   <time name="dav">    7.71    7.71</time>
   <time name="total">   10.40   10.41</time>
   <energy>
    <i name="alphaZ">   2157.06261810 </i>
    <i name="ewald"> 209508.65595289 </i>
    <i name="hartreedc">-286440.18618010 </i>
    <i name="XCdc">   3042.89281893 </i>
    <i name="pawpsdc">  81473.78507649 </i>
    <i name="pawaedc"> -80560.08776933 </i>
    <i name="eentropy">     -0.02919516 </i>
    <i name="bandstr"> -12930.69726893 </i>
    <i name="atom">  82777.01013286 </i>
    <i name="e_fr_energy">   -971.59381426 </i>
    <i name="e_wo_entrp">   -971.56461910 </i>
    <i name="e_0_energy">   -971.57921668 </i>
   </energy>
  </scstep>
  <scstep>
   <time name="dav">    9.47    9.47</time>
   <time name="total">   12.15   12.16</time>
   <energy>
    <i name="e_fr_energy">   -971.81590774 </i>
    <i name="e_wo_entrp">   -971.79049234 </i>
    <i name="e_0_energy">   -971.80320004 </i>
   </energy>
  </scstep>
  <scstep>
   <time name="dav">   11.27   11.28</time>
   <time name="total">   14.01   14.02</time>
   <energy>
    <i name="e_fr_energy">   -971.81319933 </i>
    <i name="e_wo_entrp">   -971.79854198 </i>
    <i name="e_0_energy">   -971.80587065 </i>
   </energy>
  </scstep>
  <scstep>
   <time name="dav">   11.46   11.46</time>
   <time name="total">   14.18   14.19</time>
   <energy>
    <i name="e_fr_energy">   -971.80961825 </i>
    <i name="e_wo_entrp">   -971.77640644 </i>
    <i name="e_0_energy">   -971.79301234 </i>
   </energy>
  </scstep>
  <scstep>
   <time name="dav">   10.69   10.70</time>
   <time name="total">   13.40   13.41</time>
   <energy>
    <i name="e_fr_energy">   -971.80823568 </i>
    <i name="e_wo_entrp">   -971.78524971 </i>
    <i name="e_0_energy">   -971.79674269 </i>
   </energy>
  </scstep>
  <scstep>
   <time name="dav">   11.10   11.10</time>
   <time name="total">   13.81   13.82</time>
   <energy>
    <i name="e_fr_energy">   -971.80953880 </i>
    <i name="e_wo_entrp">   -971.78240927 </i>
    <i name="e_0_energy">   -971.79597403 </i>
   </energy>
  </scstep>
  <scstep>
   <time name="dav">   11.11   11.12</time>
   <time name="total">   13.90   13.90</time>
   <energy>
    <i name="e_fr_energy">   -971.80465511 </i>
    <i name="e_wo_entrp">   -971.78235451 </i>
    <i name="e_0_energy">   -971.79350481 </i>
   </energy>
  </scstep>
  <scstep>
   <time name="dav">   10.60   10.60</time>
   <time name="total">   13.37   13.38</time>
   <energy>
    <i name="e_fr_energy">   -971.80579568 </i>
    <i name="e_wo_entrp">   -971.77974291 </i>
    <i name="e_0_energy">   -971.79276929 </i>
   </energy>
  </scstep>
  <scstep>
   <time name="dav">   11.59   11.59</time>
   <time name="total">   14.30   14.31</time>
   <energy>
    <i name="e_fr_energy">   -971.80534618 </i>
    <i name="e_wo_entrp">   -971.78019648 </i>
    <i name="e_0_energy">   -971.79277133 </i>
   </energy>
  </scstep>
  <scstep>
   <time name="dav">   11.54   11.55</time>
   <time name="total">   14.26   14.27</time>
   <energy>
    <i name="e_fr_energy">   -971.80536805 </i>
    <i name="e_wo_entrp">   -971.78140091 </i>
    <i name="e_0_energy">   -971.79338448 </i>
   </energy>
  </scstep>
  <scstep>
