unknown system                          
           1
    15.464300    0.000000    0.000000
    -7.732150   13.392477    0.000000
     0.000000    0.000000   21.048201
   Ce   O    Ir
    32   105     6
Direct configuration=     1
   0.00000000  0.00000000  0.45993000
   0.16667000  0.08333000  0.30996000
   0.25000000  0.00000000  0.45993000
   0.41667000  0.08333000  0.30996000
   0.50000000  0.00000000  0.45993000
   0.66667000  0.08333000  0.30996000
   0.75000000  0.00000000  0.45993000
   0.91667000  0.08333000  0.30996000
   0.00000000  0.25000000  0.45993000
   0.16667000  0.33333000  0.30996000
   0.25000000  0.25000000  0.45993000
   0.41667000  0.33333000  0.30996000
   0.50000000  0.25000000  0.45993000
   0.66667000  0.33333000  0.30996000
   0.75000000  0.25000000  0.45993000
   0.91667000  0.33333000  0.30996000
   0.00000000  0.50000000  0.45993000
   0.16667000  0.58333000  0.30996000
   0.25000000  0.50000000  0.45993000
   0.41667000  0.58333000  0.30996000
   0.50000000  0.50000000  0.45993000
   0.66667000  0.58333000  0.30996000
   0.75000000  0.50000000  0.45993000
   0.91667000  0.58333000  0.30996000
   0.00000000  0.75000000  0.45993000
   0.16667000  0.83333000  0.30996000
   0.25000000  0.75000000  0.45993000
   0.41667000  0.83333000  0.30996000
   0.50000000  0.75000000  0.45993000
   0.66667000  0.83333000  0.30996000
   0.75000000  0.75000000  0.45993000
   0.91667000  0.83333000  0.30996000
   0.08333000  0.16667000  0.27247000
   0.16667000  0.08333000  0.42244000
   0.08333000  0.16667000  0.49742000
   0.00000000  0.00000000  0.34745000
   0.16667000  0.08333000  0.19748000
   0.25000000  0.00000000  0.57241000
   0.33333000  0.16667000  0.27247000
   0.41667000  0.08333000  0.42244000
   0.33333000  0.16667000  0.49742000
   0.25000000  0.00000000  0.34745000
   0.41667000  0.08333000  0.19748000
   0.58333000  0.16667000  0.27247000
   0.66667000  0.08333000  0.42244000
   0.58333000  0.16667000  0.49742000
   0.50000000  0.00000000  0.34745000
   0.66667000  0.08333000  0.19748000
   0.83333000  0.16667000  0.27247000
   0.91667000  0.08333000  0.42244000
   0.83333000  0.16667000  0.49742000
   0.75000000  0.00000000  0.34745000
   0.91667000  0.08333000  0.19748000
   0.00000000  0.25000000  0.57241000
   0.08333000  0.41667000  0.27247000
   0.16667000  0.33333000  0.42244000
   0.08333000  0.41667000  0.49742000
   0.00000000  0.25000000  0.34745000
   0.16667000  0.33333000  0.19748000
   0.33333000  0.41667000  0.27247000
   0.41667000  0.33333000  0.42244000
   0.33333000  0.41667000  0.49742000
   0.25000000  0.25000000  0.34745000
   0.41667000  0.33333000  0.19748000
   0.50000000  0.25000000  0.57241000
   0.58333000  0.41667000  0.27247000
   0.66667000  0.33333000  0.42244000
   0.58333000  0.41667000  0.49742000
   0.50000000  0.25000000  0.34745000
   0.66667000  0.33333000  0.19748000
   0.83333000  0.41667000  0.27247000
   0.91667000  0.33333000  0.42244000
   0.83333000  0.41667000  0.49742000
   0.75000000  0.25000000  0.34745000
   0.91667000  0.33333000  0.19748000
   0.08333000  0.66667000  0.27247000
   0.16667000  0.58333000  0.42244000
   0.08333000  0.66667000  0.49742000
   0.00000000  0.50000000  0.34745000
   0.16667000  0.58333000  0.19748000
   0.25000000  0.50000000  0.57241000
   0.33333000  0.66667000  0.27247000
   0.41667000  0.58333000  0.42244000
   0.33333000  0.66667000  0.49742000
   0.25000000  0.50000000  0.34745000
   0.41667000  0.58333000  0.19748000
   0.58333000  0.66667000  0.27247000
   0.66667000  0.58333000  0.42244000
   0.58333000  0.66667000  0.49742000
   0.50000000  0.50000000  0.34745000
   0.66667000  0.58333000  0.19748000
   0.75000000  0.50000000  0.57241000
   0.75000000  0.00000000  0.57241000
   0.83333000  0.66667000  0.27247000
   0.91667000  0.58333000  0.42244000
   0.83333000  0.66667000  0.49742000
   0.75000000  0.50000000  0.34745000
   0.91667000  0.58333000  0.19748000
   0.08333000  0.91667000  0.27247000
   0.16667000  0.83333000  0.42244000
   0.08333000  0.91667000  0.49742000
   0.00000000  0.75000000  0.34745000
   0.16667000  0.83333000  0.19748000
   0.33333000  0.91667000  0.27247000
   0.41667000  0.83333000  0.42244000
   0.33333000  0.91667000  0.49742000
   0.25000000  0.75000000  0.34745000
   0.41667000  0.83333000  0.19748000
   0.50000000  0.75000000  0.57241000
   0.58333000  0.91667000  0.27247000
   0.66667000  0.83333000  0.42244000
   0.58333000  0.91667000  0.49742000
   0.50000000  0.75000000  0.34745000
   0.66667000  0.83333000  0.19748000
   0.83333000  0.91667000  0.27247000
   0.91667000  0.83333000  0.42244000
   0.83333000  0.91667000  0.49742000
   0.75000000  0.75000000  0.34745000
   0.91667000  0.83333000  0.19748000
   0.58333000  0.42313000  0.64471000
   0.33333000  0.67313000  0.64471000
   0.83333000  0.67313000  0.64471000
   0.58333000  0.92313000  0.64471000
   0.67274000  0.33528000  0.64832000
   0.42274000  0.58528000  0.64832000
   0.92274000  0.58528000  0.64832000
   0.67274000  0.83528000  0.64832000
   0.67456000  0.33342000  0.50166000
   0.42456000  0.58342000  0.50166000
   0.92456000  0.58342000  0.50166000
   0.67456000  0.83342000  0.50166000
   0.32946000  0.17333000  0.64471000
   0.07946000  0.42333000  0.64471000
   0.41887000  0.08548000  0.64832000
   0.16887000  0.33548000  0.64832000
   0.42069000  0.08361000  0.50166000
   0.17069000  0.33361000  0.50166000
   0.62755000  0.87171000  0.57241000
   0.38290000  0.63176000  0.57241000
   0.88375000  0.62820000  0.57241000
   0.63909000  0.38824000  0.57241000
   0.12902000  0.38196000  0.57241000
   0.38522000  0.13844000  0.57241000
Direct configuration=     2
   0.99922230  0.98592900  0.46190841
   0.16667000  0.08333000  0.30996000
   0.24168921  0.99055955  0.46047791
   0.41667000  0.08333000  0.30996000
   0.49568485  0.99462378  0.46525117
   0.66667000  0.08333000  0.30996000
   0.74444703  0.98567348  0.45735905
   0.91667000  0.08333000  0.30996000
   0.00890550  0.25755856  0.45258956
   0.16667000  0.33333000  0.30996000
   0.25928669  0.25123998  0.45600096
   0.41667000  0.33333000  0.30996000
   0.50236236  0.25102872  0.45457722
   0.66667000  0.33333000  0.30996000
   0.74054573  0.25657137  0.47149737
   0.91667000  0.33333000  0.30996000
   0.00540823  0.50144544  0.46208152
   0.16667000  0.58333000  0.30996000
   0.25419825  0.50942145  0.45387963
   0.41667000  0.58333000  0.30996000
   0.50050296  0.50022799  0.45943372
   0.66667000  0.58333000  0.30996000
   0.74989418  0.50138994  0.45483067
   0.91667000  0.58333000  0.30996000
   0.01191355  0.76215509  0.45736849
   0.16667000  0.83333000  0.30996000
   0.24973803  0.75225650  0.45934325
   0.41667000  0.83333000  0.30996000
   0.49630935  0.75025078  0.45841875
   0.66667000  0.83333000  0.30996000
   0.74967131  0.74886545  0.46077890
   0.91667000  0.83333000  0.30996000
   0.08333000  0.16667000  0.27247000
   0.16739403  0.08416195  0.42358357
   0.08178412  0.16494859  0.49989751
   0.99879987  0.99896804  0.34883904
   0.16667000  0.08333000  0.19748000
   0.25804907  0.00792634  0.57316298
   0.33333000  0.16667000  0.27247000
   0.41687945  0.08551726  0.41675506
   0.33132457  0.17393780  0.49629521
   0.25118317  0.99964256  0.34752958
   0.41667000  0.08333000  0.19748000
   0.58333000  0.16667000  0.27247000
   0.66673996  0.08379500  0.42307386
   0.58327114  0.16308291  0.49468502
   0.49786762  0.99863812  0.34847063
   0.66667000  0.08333000  0.19748000
   0.83333000  0.16667000  0.27247000
   0.91687016  0.08340273  0.42284138
   0.83545517  0.16723610  0.50469753
   0.74999213  0.99855329  0.34742777
   0.91667000  0.08333000  0.19748000
   0.00810354  0.25661144  0.57252280
   0.08333000  0.41667000  0.27247000
   0.16601347  0.33261313  0.42386284
   0.07942508  0.42102192  0.49776406
   0.00083310  0.24990687  0.34739663
   0.16667000  0.33333000  0.19748000
   0.33333000  0.41667000  0.27247000
   0.41729861  0.33332854  0.42370502
   0.34114205  0.41440663  0.49607034
   0.25105904  0.25158772  0.34924616
   0.41667000  0.33333000  0.19748000
   0.51621691  0.26642220  0.57108691
   0.58333000  0.41667000  0.27247000
   0.66489262  0.33594223  0.41388923
   0.58046117  0.42127504  0.49640073
   0.50004664  0.24959621  0.34919551
   0.66667000  0.33333000  0.19748000
   0.83333000  0.41667000  0.27247000
   0.91494862  0.33111225  0.42267605
   0.83615431  0.41760394  0.49605426
   0.75665663  0.25651064  0.34070898
   0.91667000  0.33333000  0.19748000
   0.08333000  0.66667000  0.27247000
   0.16674890  0.58492252  0.42114058
   0.08819715  0.67173600  0.49640119
   0.00042009  0.50170596  0.34717913
   0.16667000  0.58333000  0.19748000
   0.26049652  0.51013359  0.57267500
   0.33333000  0.66667000  0.27247000
   0.41695212  0.58571112  0.41720579
   0.33332075  0.67305698  0.49720826
   0.25137886  0.50159637  0.34602566
   0.41667000  0.58333000  0.19748000
   0.58333000  0.66667000  0.27247000
   0.66588087  0.58235919  0.42441120
   0.58798890  0.66336386  0.49528490
   0.49842647  0.49985114  0.34974877
   0.66667000  0.58333000  0.19748000
   0.76469090  0.51604146  0.56971556
   0.74316698  0.99207520  0.57086540
   0.83333000  0.66667000  0.27247000
   0.91396906  0.58574216  0.41719422
   0.83135142  0.67021872  0.49762941
   0.75030083  0.49917637  0.34932337
   0.91667000  0.58333000  0.19748000
   0.08333000  0.91667000  0.27247000
   0.16392773  0.83230804  0.42184373
   0.07893813  0.91220108  0.49568590
   0.00040044  0.75015794  0.34979258
   0.16667000  0.83333000  0.19748000
   0.33333000  0.91667000  0.27247000
   0.41829577  0.83382450  0.42211694
   0.33221572  0.91251664  0.49530426
   0.25057591  0.74997009  0.34682218
   0.41667000  0.83333000  0.19748000
   0.50468380  0.75461984  0.57108596
   0.58333000  0.91667000  0.27247000
   0.66332584  0.83263738  0.41914069
   0.57887377  0.91694488  0.49847828
   0.49907670  0.74943334  0.34871668
   0.66667000  0.83333000  0.19748000
   0.83333000  0.91667000  0.27247000
   0.91716831  0.83173016  0.42364674
   0.83918907  0.91613432  0.49699209
   0.74990637  0.75068782  0.34925305
   0.91667000  0.83333000  0.19748000
   0.58679131  0.41911365  0.63971454
   0.33636295  0.67099502  0.63812282
   0.83860856  0.67283070  0.63998068
   0.58504411  0.91933970  0.64100940
   0.67220787  0.33750879  0.64562732
   0.42402891  0.58556727  0.64318458
   0.92325395  0.58829531  0.64409010
   0.67087703  0.83565767  0.64483235
   0.67452869  0.33216859  0.51385855
   0.42525993  0.58015509  0.50956338
   0.92639471  0.57866271  0.51063405
   0.67802816  0.83037348  0.50594107
   0.33221596  0.17090188  0.64033202
   0.07736399  0.42256204  0.64746329
   0.41843905  0.08850585  0.64429757
   0.16937152  0.33479376  0.64797378
   0.42303008  0.08073059  0.50895344
   0.17261969  0.32404360  0.49980740
   0.63066321  0.88506531  0.58661696
   0.36610091  0.62229514  0.58548483
   0.87958526  0.62884760  0.58573295
   0.61089559  0.36360428  0.58899861
   0.10780464  0.37014249  0.58899102
   0.35513135  0.11048775  0.58999572
Direct configuration=     3
   0.99926496  0.98670082  0.46179989
   0.16667000  0.08333000  0.30996000
   0.24214507  0.99107737  0.46044786
   0.41667000  0.08333000  0.30996000
   0.49592154  0.99491867  0.46495930
   0.66667000  0.08333000  0.30996000
   0.74475162  0.98645931  0.45750007
   0.91667000  0.08333000  0.30996000
   0.00841702  0.25714396  0.45299219
   0.16667000  0.33333000  0.30996000
   0.25877730  0.25117197  0.45621648
   0.41667000  0.33333000  0.30996000
   0.50223278  0.25097229  0.45487083
   0.66667000  0.33333000  0.30996000
   0.74106431  0.25621092  0.47086288
   0.91667000  0.33333000  0.30996000
   0.00511158  0.50136615  0.46196350
   0.16667000  0.58333000  0.30996000
   0.25396797  0.50890467  0.45421150
   0.41667000  0.58333000  0.30996000
   0.50047537  0.50021548  0.45946094
   0.66667000  0.58333000  0.30996000
   0.74989998  0.50131370  0.45511037
   0.91667000  0.58333000  0.30996000
   0.01126007  0.76148837  0.45750900
   0.16667000  0.83333000  0.30996000
   0.24975240  0.75213272  0.45937544
   0.41667000  0.83333000  0.30996000
   0.49651179  0.75023702  0.45850165
   0.66667000  0.83333000  0.30996000
   0.74968934  0.74892768  0.46073233
   0.91667000  0.83333000  0.30996000
   0.08333000  0.16667000  0.27247000
   0.16735431  0.08411632  0.42352085
   0.08186891  0.16504301  0.49976161
   0.99886570  0.99902465  0.34876285
   0.16667000  0.08333000  0.19748000
   0.25760756  0.00749156  0.57312168
   0.33333000  0.16667000  0.27247000
   0.41686796  0.08539729  0.41706689
   0.33143457  0.17353915  0.49635690
   0.25111827  0.99966216  0.34752522
   0.41667000  0.08333000  0.19748000
   0.58333000  0.16667000  0.27247000
   0.66673612  0.08376950  0.42303909
   0.58327437  0.16327967  0.49483504
   0.49798459  0.99871282  0.34841465
   0.66667000  0.08333000  0.19748000
   0.83333000  0.16667000  0.27247000
   0.91685918  0.08339874  0.42281937
   0.83533860  0.16720505  0.50429834
   0.74999256  0.99863264  0.34742899
   0.91667000  0.08333000  0.19748000
   0.00765905  0.25624879  0.57251661
   0.08333000  0.41667000  0.27247000
   0.16604948  0.33265246  0.42378479
   0.07963927  0.42078321  0.49774518
   0.00078740  0.24991198  0.34739955
   0.16667000  0.33333000  0.19748000
   0.33333000  0.41667000  0.27247000
   0.41726413  0.33332862  0.42363563
   0.34071354  0.41453078  0.49614437
   0.25100095  0.25150063  0.34914764
   0.41667000  0.33333000  0.19748000
   0.51532739  0.26552142  0.57115948
   0.58333000  0.41667000  0.27247000
   0.66499011  0.33579895  0.41435826
   0.58061853  0.42102245  0.49645664
   0.50004408  0.24961836  0.34909976
   0.66667000  0.33333000  0.19748000
   0.83333000  0.41667000  0.27247000
   0.91504304  0.33123390  0.42266310
   0.83599939  0.41755271  0.49612917
   0.75629150  0.25615352  0.34107873
   0.91667000  0.33333000  0.19748000
   0.08333000  0.66667000  0.27247000
   0.16674457  0.58483517  0.42121185
   0.08793018  0.67145812  0.49645707
   0.00039705  0.50161239  0.34719399
   0.16667000  0.58333000  0.19748000
   0.25992077  0.50957775  0.57266047
   0.33333000  0.66667000  0.27247000
   0.41693665  0.58558052  0.41749289
   0.33332125  0.67270665  0.49721987
   0.25130322  0.50150880  0.34610379
   0.41667000  0.58333000  0.19748000
   0.58333000  0.66667000  0.27247000
   0.66592415  0.58241244  0.42430307
   0.58773335  0.66354521  0.49540201
   0.49851278  0.49985930  0.34962268
   0.66667000  0.58333000  0.19748000
   0.76388508  0.51516156  0.56986336
   0.74354178  0.99250989  0.57095012
   0.83333000  0.66667000  0.27247000
   0.91411721  0.58560985  0.41748196
   0.83145995  0.67002407  0.49761792
   0.75028433  0.49922154  0.34922061
   0.91667000  0.58333000  0.19748000
   0.08333000  0.91667000  0.27247000
   0.16407814  0.83236409  0.42187643
   0.07917904  0.91244621  0.49578102
   0.00037848  0.75014928  0.34966409
   0.16667000  0.83333000  0.19748000
   0.33333000  0.91667000  0.27247000
   0.41820659  0.83379737  0.42213466
   0.33227684  0.91274445  0.49542031
   0.25054432  0.74997173  0.34685662
   0.41667000  0.83333000  0.19748000
   0.50442688  0.75436643  0.57115858
   0.58333000  0.91667000  0.27247000
   0.66350927  0.83267537  0.41932166
   0.57911820  0.91692980  0.49842023
   0.49912734  0.74946442  0.34864720
   0.66667000  0.83333000  0.19748000
   0.83333000  0.91667000  0.27247000
   0.91714097  0.83181791  0.42358055
   0.83886769  0.91616370  0.49701556
   0.74991150  0.75065009  0.34915415
   0.91667000  0.83333000  0.19748000
   0.58660145  0.41933395  0.63998855
   0.33619659  0.67111213  0.63848413
   0.83831902  0.67284712  0.64024009
   0.58495009  0.91954760  0.64121238
   0.67223706  0.33738654  0.64577502
   0.42395821  0.58555152  0.64346627
   0.92322576  0.58812992  0.64432212
   0.67097922  0.83563695  0.64502366
   0.67453040  0.33223723  0.51318944
   0.42522154  0.58033417  0.50912986
   0.92629407  0.57892365  0.51014181
   0.67783792  0.83054058  0.50570624
   0.33206479  0.17103507  0.64057216
   0.07747896  0.42260416  0.64731227
   0.41846269  0.08833988  0.64451821
   0.16934401  0.33483140  0.64799277
   0.42290172  0.08088853  0.50855338
   0.17251385  0.32456833  0.49990902
   0.63049244  0.88433275  0.58583769
   0.36702236  0.62281431  0.58476765
   0.87981371  0.62881208  0.58500217
   0.61244210  0.36495559  0.58808870
   0.10896834  0.37079070  0.58808153
   0.35678176  0.11202098  0.58903112
Direct configuration=     4
   0.99959442  0.99266188  0.46096175
   0.16667000  0.08333000  0.30996000
   0.24566587  0.99507674  0.46021574
   0.41667000  0.08333000  0.30996000
   0.49774962  0.99719627  0.46270503
   0.66667000  0.08333000  0.30996000
   0.74710409  0.99252863  0.45858923
   0.91667000  0.08333000  0.30996000
   0.00464427  0.25394184  0.45610191
   0.16667000  0.33333000  0.30996000
   0.25484307  0.25064666  0.45788098
   0.41667000  0.33333000  0.30996000
   0.50123199  0.25053648  0.45713849
   0.66667000  0.33333000  0.30996000
   0.74506954  0.25342701  0.46596246
   0.91667000  0.33333000  0.30996000
   0.00282043  0.50075380  0.46105203
   0.16667000  0.58333000  0.30996000
   0.25218941  0.50491335  0.45677469
   0.41667000  0.58333000  0.30996000
   0.50026230  0.50011890  0.45967119
   0.66667000  0.58333000  0.30996000
   0.74994481  0.50072486  0.45727066
   0.91667000  0.58333000  0.30996000
   0.00621299  0.75633896  0.45859416
   0.16667000  0.83333000  0.30996000
   0.24986338  0.75117678  0.45962401
   0.41667000  0.83333000  0.30996000
   0.49807530  0.75013078  0.45914188
   0.66667000  0.83333000  0.30996000
   0.74982859  0.74940832  0.46037270
   0.91667000  0.83333000  0.30996000
   0.08333000  0.16667000  0.27247000
   0.16704758  0.08376387  0.42303638
   0.08252381  0.16577227  0.49871204
   0.99937412  0.99946183  0.34817440
   0.16667000  0.08333000  0.19748000
   0.25419764  0.00413364  0.57280268
   0.33333000  0.16667000  0.27247000
   0.41677923  0.08447067  0.41947527
   0.33228416  0.17046020  0.49683341
   0.25061703  0.99981359  0.34749150
   0.41667000  0.08333000  0.19748000
   0.58333000  0.16667000  0.27247000
   0.66670648  0.08357250  0.42277056
   0.58329930  0.16479931  0.49599369
   0.49888795  0.99928977  0.34798227
   0.66667000  0.08333000  0.19748000
   0.83333000  0.16667000  0.27247000
   0.91677438  0.08336793  0.42264932
   0.83443829  0.16696522  0.50121528
   0.74999589  0.99924553  0.34743841
   0.91667000  0.08333000  0.19748000
   0.00422605  0.25344791  0.57246883
   0.08333000  0.41667000  0.27247000
   0.16632761  0.33295615  0.42318202
   0.08129356  0.41893956  0.49759943
   0.00043447  0.24995143  0.34742216
   0.16667000  0.33333000  0.19748000
   0.33333000  0.41667000  0.27247000
   0.41699782  0.33332924  0.42309972
   0.33740403  0.41548964  0.49671614
   0.25055230  0.25082801  0.34838671
   0.41667000  0.33333000  0.19748000
   0.50845723  0.25856429  0.57172000
   0.58333000  0.41667000  0.27247000
   0.66574308  0.33469230  0.41798072
   0.58183389  0.41907156  0.49688845
   0.50002432  0.24978942  0.34836029
   0.66667000  0.33333000  0.19748000
   0.83333000  0.41667000  0.27247000
   0.91577229  0.33217343  0.42256310
   0.83480289  0.41715706  0.49670776
   0.75347147  0.25339534  0.34393451
   0.91667000  0.33333000  0.19748000
   0.08333000  0.66667000  0.27247000
   0.16671115  0.58416051  0.42176234
   0.08586825  0.66931195  0.49688868
   0.00021908  0.50088967  0.34730874
   0.16667000  0.58333000  0.19748000
   0.25547400  0.50528474  0.57254820
   0.33333000  0.66667000  0.27247000
   0.41681713  0.58457177  0.41971032
   0.33332517  0.67000085  0.49730957
   0.25071908  0.50083252  0.34670720
   0.41667000  0.58333000  0.19748000
   0.58333000  0.66667000  0.27247000
   0.66625846  0.58282371  0.42346799
   0.58575964  0.66494583  0.49630653
   0.49917939  0.49992237  0.34864882
   0.66667000  0.58333000  0.19748000
   0.75766140  0.50836573  0.57100483
   0.74643654  0.99586716  0.57160448
   0.83333000  0.66667000  0.27247000
   0.91526144  0.58458796  0.41970429
   0.83229816  0.66852068  0.49752921
   0.75015689  0.49957047  0.34842697
   0.91667000  0.58333000  0.19748000
   0.08333000  0.91667000  0.27247000
   0.16523989  0.83279704  0.42212904
   0.08103961  0.91433943  0.49651566
   0.00020883  0.75008237  0.34867167
   0.16667000  0.83333000  0.19748000
   0.33333000  0.91667000  0.27247000
   0.41751785  0.83358788  0.42227152
   0.33274890  0.91450399  0.49631663
   0.25030034  0.74998440  0.34712259
   0.41667000  0.83333000  0.19748000
   0.50244263  0.75240927  0.57171950
   0.58333000  0.91667000  0.27247000
   0.66492600  0.83296879  0.42071939
   0.58100605  0.91681335  0.49797190
   0.49951849  0.74970448  0.34811058
   0.66667000  0.83333000  0.19748000
   0.83333000  0.91667000  0.27247000
   0.91692987  0.83249567  0.42306932
   0.83638554  0.91639064  0.49719684
   0.74995117  0.75035870  0.34839030
   0.91667000  0.83333000  0.19748000
   0.58513510  0.42103545  0.64210483
   0.33491170  0.67201659  0.64127474
   0.83608280  0.67297391  0.64224363
   0.58422392  0.92115333  0.64278011
   0.67246249  0.33644233  0.64691575
   0.42341217  0.58542982  0.64564185
   0.92300803  0.58685250  0.64611408
   0.67176845  0.83547696  0.64650117
   0.67454367  0.33276738  0.50802162
   0.42492502  0.58171733  0.50578166
   0.92551681  0.58093904  0.50634003
   0.67636867  0.83183122  0.50389260
   0.33089725  0.17206372  0.64242686
   0.07836692  0.42292950  0.64614586
   0.41864526  0.08705800  0.64622228
   0.16913154  0.33512212  0.64813944
   0.42191037  0.08210837  0.50546358
   0.17169635  0.32862106  0.50069386
   0.62917356  0.87867488  0.57981902
   0.37413916  0.62682402  0.57922861
   0.88157806  0.62853773  0.57935801
   0.62438643  0.37539231  0.58106107
   0.11795605  0.37579709  0.58105711
   0.36952857  0.12386272  0.58158107
Direct configuration=     5
   0.99956144  0.99206513  0.46104566
   0.16667000  0.08333000  0.30996000
   0.24531341  0.99467637  0.46023898
   0.41667000  0.08333000  0.30996000
   0.49756661  0.99696826  0.46293070
   0.66667000  0.08333000  0.30996000
   0.74686858  0.99192103  0.45848020
   0.91667000  0.08333000  0.30996000
   0.00502196  0.25426240  0.45579060
   0.16667000  0.33333000  0.30996000
   0.25523692  0.25069925  0.45771435
   0.41667000  0.33333000  0.30996000
   0.50133218  0.25058011  0.45691148
   0.66667000  0.33333000  0.30996000
   0.74466858  0.25370571  0.46645304
   0.91667000  0.33333000  0.30996000
   0.00304979  0.50081511  0.46114328
   0.16667000  0.58333000  0.30996000
   0.25236746  0.50531292  0.45651810
   0.41667000  0.58333000  0.30996000
   0.50028363  0.50012857  0.45965014
   0.66667000  0.58333000  0.30996000
   0.74994032  0.50078381  0.45705440
   0.91667000  0.58333000  0.30996000
   0.00671825  0.75685446  0.45848552
   0.16667000  0.83333000  0.30996000
   0.24985227  0.75127248  0.45959912
   0.41667000  0.83333000  0.30996000
   0.49791878  0.75014142  0.45907778
   0.66667000  0.83333000  0.30996000
   0.74981465  0.74936021  0.46040871
   0.91667000  0.83333000  0.30996000
   0.08333000  0.16667000  0.27247000
   0.16707829  0.08379915  0.42308488
   0.08245825  0.16569927  0.49881711
   0.99932322  0.99941806  0.34823330
   0.16667000  0.08333000  0.19748000
   0.25453901  0.00446979  0.57283462
   0.33333000  0.16667000  0.27247000
   0.41678811  0.08456343  0.41923417
   0.33219910  0.17076843  0.49678571
   0.25066721  0.99979843  0.34749488
   0.41667000  0.08333000  0.19748000
   0.58333000  0.16667000  0.27247000
   0.66670945  0.08359222  0.42279744
   0.58329681  0.16464718  0.49587770
   0.49879752  0.99923201  0.34802555
   0.66667000  0.08333000  0.19748000
   0.83333000  0.16667000  0.27247000
   0.91678287  0.08337101  0.42266635
   0.83452842  0.16698923  0.50152392
   0.74999556  0.99918418  0.34743746
   0.91667000  0.08333000  0.19748000
   0.00456973  0.25372830  0.57247361
   0.08333000  0.41667000  0.27247000
   0.16629977  0.33292575  0.42324236
   0.08112795  0.41912412  0.49761402
   0.00046980  0.24994748  0.34741990
   0.16667000  0.33333000  0.19748000
   0.33333000  0.41667000  0.27247000
   0.41702448  0.33332918  0.42315337
   0.33773535  0.41539365  0.49665890
   0.25059721  0.25089534  0.34846288
   0.41667000  0.33333000  0.19748000
   0.50914499  0.25926076  0.57166389
   0.58333000  0.41667000  0.27247000
   0.66566770  0.33480308  0.41761808
   0.58171222  0.41926686  0.49684522
   0.50002630  0.24977230  0.34843432
   0.66667000  0.33333000  0.19748000
   0.83333000  0.41667000  0.27247000
   0.91569929  0.33207937  0.42257311
   0.83492267  0.41719667  0.49664984
   0.75375378  0.25367146  0.34364862
   0.91667000  0.33333000  0.19748000
   0.08333000  0.66667000  0.27247000
   0.16671449  0.58422805  0.42170723
   0.08607467  0.66952680  0.49684548
   0.00023690  0.50096202  0.34729725
   0.16667000  0.58333000  0.19748000
   0.25591917  0.50571450  0.57255944
   0.33333000  0.66667000  0.27247000
   0.41682909  0.58467276  0.41948834
   0.33332478  0.67027173  0.49730059
   0.25077756  0.50090022  0.34664679
   0.41667000  0.58333000  0.19748000
   0.58333000  0.66667000  0.27247000
   0.66622500  0.58278254  0.42355159
   0.58595723  0.66480561  0.49621598
   0.49911266  0.49991605  0.34874631
   0.66667000  0.58333000  0.19748000
   0.75828444  0.50904605  0.57089056
   0.74614674  0.99553107  0.57153897
   0.83333000  0.66667000  0.27247000
   0.91514689  0.58469026  0.41948181
   0.83221424  0.66867118  0.49753809
   0.75016965  0.49953554  0.34850642
   0.91667000  0.58333000  0.19748000
   0.08333000  0.91667000  0.27247000
   0.16512359  0.83275370  0.42210375
   0.08085335  0.91414990  0.49644211
   0.00022582  0.75008906  0.34877102
   0.16667000  0.83333000  0.19748000
   0.33333000  0.91667000  0.27247000
   0.41758680  0.83360886  0.42225782
   0.33270164  0.91432785  0.49622690
   0.25032476  0.74998313  0.34709596
   0.41667000  0.83333000  0.19748000
   0.50264127  0.75260520  0.57166335
   0.58333000  0.91667000  0.27247000
   0.66478417  0.83293942  0.42057946
   0.58081706  0.91682501  0.49801678
   0.49947934  0.74968045  0.34816430
   0.66667000  0.83333000  0.19748000
   0.83333000  0.91667000  0.27247000
   0.91695100  0.83242782  0.42312050
   0.83663403  0.91636792  0.49717869
   0.74994720  0.75038787  0.34846677
   0.91667000  0.83333000  0.19748000
   0.58528189  0.42086511  0.64189298
   0.33504033  0.67192605  0.64099538
   0.83630667  0.67296122  0.64204306
   0.58429662  0.92099258  0.64262317
   0.67243992  0.33653685  0.64680155
   0.42346684  0.58544200  0.64542405
   0.92302982  0.58698038  0.64593469
   0.67168944  0.83549297  0.64635326
   0.67454234  0.33271431  0.50853897
   0.42495470  0.58157886  0.50611685
   0.92559462  0.58073728  0.50672062
   0.67651575  0.83170201  0.50407417
   0.33101413  0.17196074  0.64224118
   0.07827802  0.42289693  0.64626263
   0.41862698  0.08718633  0.64605168
   0.16915281  0.33509302  0.64812476
   0.42200961  0.08198625  0.50577289
   0.17177819  0.32821534  0.50061529
   0.62930559  0.87924128  0.58042155
   0.37342671  0.62642261  0.57978311
   0.88140143  0.62856519  0.57992304
   0.62319070  0.37434750  0.58176460
   0.11705630  0.37529590  0.58176032
   0.36825250  0.12267726  0.58232689
Direct configuration=     6
   0.99812976  0.99272141  0.46166202
   0.16667000  0.08333000  0.30996000
   0.24294134  0.99192838  0.46061292
   0.41667000  0.08333000  0.30996000
   0.49797630  0.99764083  0.46296154
   0.66667000  0.08333000  0.30996000
   0.75487196  0.00003234  0.45781837
   0.91667000  0.08333000  0.30996000
   0.99340074  0.24430388  0.45626735
   0.16667000  0.33333000  0.30996000
   0.25731081  0.24918973  0.45802974
   0.41667000  0.33333000  0.30996000
   0.50326172  0.25110421  0.45513933
   0.66667000  0.33333000  0.30996000
   0.74678600  0.25027233  0.46778095
   0.91667000  0.33333000  0.30996000
   0.00176791  0.50013767  0.46009132
   0.16667000  0.58333000  0.30996000
   0.25601330  0.50812257  0.45557460
   0.41667000  0.58333000  0.30996000
   0.50067158  0.50067207  0.46008012
   0.66667000  0.58333000  0.30996000
   0.74917935  0.50002114  0.45535517
   0.91667000  0.58333000  0.30996000
   0.00993482  0.76030133  0.45710341
   0.16667000  0.83333000  0.30996000
   0.24891189  0.75415174  0.45901894
   0.41667000  0.83333000  0.30996000
   0.49933103  0.74979947  0.45742222
   0.66667000  0.83333000  0.30996000
   0.74959840  0.74793945  0.46067421
   0.91667000  0.83333000  0.30996000
   0.08333000  0.16667000  0.27247000
   0.16748885  0.08346124  0.42350528
   0.08091458  0.16062639  0.49812400
   0.99936041  0.99856954  0.34936829
   0.16667000  0.08333000  0.19748000
   0.25569963  0.00642815  0.57265967
   0.33333000  0.16667000  0.27247000
   0.41529314  0.08477261  0.41411205
   0.33061595  0.17337745  0.49859043
   0.25064662  0.99937331  0.34830907
   0.41667000  0.08333000  0.19748000
   0.58333000  0.16667000  0.27247000
   0.66611577  0.08315337  0.42330776
   0.58661282  0.16283621  0.49385405
   0.49787633  0.99883708  0.34944803
   0.66667000  0.08333000  0.19748000
   0.83333000  0.16667000  0.27247000
   0.91694973  0.08325605  0.42235682
   0.83477965  0.16854597  0.50215765
   0.74938002  0.99787559  0.34771447
   0.91667000  0.08333000  0.19748000
   0.00855682  0.25801208  0.57199978
   0.08333000  0.41667000  0.27247000
   0.16823787  0.33594886  0.42257024
   0.08038836  0.42309374  0.49920969
   0.00278574  0.25116929  0.34761653
   0.16667000  0.33333000  0.19748000
   0.33333000  0.41667000  0.27247000
   0.41786981  0.33286328  0.42288950
   0.34250681  0.41340757  0.49411090
   0.25043608  0.25193914  0.34961199
   0.41667000  0.33333000  0.19748000