  160  160  100    1
  0.2724496E+02  0.1546430E-08  0.1546430E-08  0.2104820E-08  0.5000000E-15
  1.000000000000000E-004
  CAR 
 unknown system                          
   1248      1    768
