       N       E                     dE             d eps       ncg     rms          rms(c)
DAV:   1     0.102811081980E+05    0.10281E+05   -0.55845E+05  1536   0.144E+03
DAV:   2    -0.940282663067E+03   -0.11221E+05   -0.11221E+05  3072   0.238E+02
DAV:   3    -0.150252902293E+04   -0.56225E+03   -0.56214E+03  1536   0.969E+01
DAV:   4    -0.153408576180E+04   -0.31557E+02   -0.31515E+02  2304   0.205E+01
DAV:   5    -0.153527923006E+04   -0.11935E+01   -0.11934E+01  1536   0.458E+00    0.189E+02
