  71  71   0   0
  0.3453571E+02  0.1159820E-08  0.1159820E-08  0.2104820E-08  0.5000000E-15
  1.000000000000000E-004
  CAR 
 unknown system                          
      2.09015999    -38.14494869  301     -2.02727450      1.00000000
    -38.145  0.0000E+00  0.0000E+00  0.0000E+00  0.0000E+00
    -38.011  0.0000E+00  0.0000E+00  0.0000E+00  0.0000E+00
    -37.877  0.0000E+00  0.0000E+00  0.0000E+00  0.0000E+00
    -37.743  0.0000E+00  0.0000E+00  0.0000E+00  0.0000E+00
    -37.608  0.0000E+00  0.0000E+00  0.0000E+00  0.0000E+00
    -37.474  0.0000E+00  0.0000E+00  0.0000E+00  0.0000E+00
    -37.340  0.0000E+00  0.0000E+00  0.0000E+00  0.0000E+00
    -37.206  0.0000E+00  0.0000E+00  0.0000E+00  0.0000E+00
    -37.072  0.0000E+00  0.0000E+00  0.0000E+00  0.0000E+00
    -36.938  0.0000E+00  0.0000E+00  0.0000E+00  0.0000E+00
    -36.804  0.0000E+00  0.0000E+00  0.0000E+00  0.0000E+00
    -36.670  0.0000E+00  0.0000E+00  0.0000E+00  0.0000E+00
    -36.536  0.6695E-11  0.5750E-11  0.8979E-12  0.7711E-12
    -36.401  0.1962E-03  0.1836E-03  0.2632E-04  0.2463E-04
    -36.267  0.3099E-01  0.2792E-01  0.4183E-02  0.3769E-02
    -36.133  0.1366E+00  0.1388E+00  0.2250E-01  0.2239E-01
    -35.999  0.2404E+00  0.2467E+00  0.5474E-01  0.5547E-01
    -35.865  0.3914E-01  0.3373E-01  0.5999E-01  0.6000E-01
    -35.731  0.1011E-03  0.9256E-05  0.6000E-01  0.6000E-01
    -35.597  0.1473E-11  0.8882E-14  0.6000E-01  0.6000E-01
    -35.463  0.0000E+00  0.0000E+00  0.6000E-01  0.6000E-01
    -35.328  0.0000E+00  0.0000E+00  0.6000E-01  0.6000E-01
    -35.194  0.0000E+00  0.0000E+00  0.6000E-01  0.6000E-01
    -35.060  0.0000E+00  0.0000E+00  0.6000E-01  0.6000E-01
    -34.926  0.0000E+00  0.0000E+00  0.6000E-01  0.6000E-01
    -34.792  0.0000E+00  0.0000E+00  0.6000E-01  0.6000E-01
    -34.658  0.0000E+00  0.0000E+00  0.6000E-01  0.6000E-01
    -34.524  0.0000E+00  0.0000E+00  0.6000E-01  0.6000E-01
    -34.390  0.0000E+00  0.0000E+00  0.6000E-01  0.6000E-01
    -34.256  0.0000E+00  0.0000E+00  0.6000E-01  0.6000E-01
    -34.121  0.0000E+00  0.0000E+00  0.6000E-01  0.6000E-01
    -33.987  0.0000E+00  0.0000E+00  0.6000E-01  0.6000E-01
    -33.853  0.0000E+00  0.0000E+00  0.6000E-01  0.6000E-01
    -33.719  0.0000E+00  0.0000E+00  0.6000E-01  0.6000E-01
    -33.585  0.0000E+00  0.0000E+00  0.6000E-01  0.6000E-01
    -33.451  0.0000E+00  0.0000E+00  0.6000E-01  0.6000E-01
    -33.317  0.0000E+00  0.0000E+00  0.6000E-01  0.6000E-01
    -33.183  0.0000E+00  0.0000E+00  0.6000E-01  0.6000E-01
    -33.049  0.0000E+00  0.0000E+00  0.6000E-01  0.6000E-01
    -32.914  0.0000E+00  0.0000E+00  0.6000E-01  0.6000E-01
    -32.780  0.0000E+00  0.0000E+00  0.6000E-01  0.6000E-01
    -32.646  0.0000E+00  0.0000E+00  0.6000E-01  0.6000E-01
    -32.512  0.0000E+00  0.0000E+00  0.6000E-01  0.6000E-01
    -32.378  0.0000E+00  0.0000E+00  0.6000E-01  0.6000E-01
    -32.244  0.0000E+00  0.0000E+00  0.6000E-01  0.6000E-01
    -32.110  0.0000E+00  0.0000E+00  0.6000E-01  0.6000E-01
    -31.976  0.0000E+00  0.0000E+00  0.6000E-01  0.6000E-01
    -31.841  0.0000E+00  0.0000E+00  0.6000E-01  0.6000E-01
    -31.707  0.0000E+00  0.0000E+00  0.6000E-01  0.6000E-01
    -31.573  0.0000E+00  0.0000E+00  0.6000E-01  0.6000E-01
    -31.439  0.0000E+00  0.0000E+00  0.6000E-01  0.6000E-01
    -31.305  0.0000E+00  0.0000E+00  0.6000E-01  0.6000E-01
    -31.171  0.0000E+00  0.0000E+00  0.6000E-01  0.6000E-01
    -31.037  0.0000E+00  0.0000E+00  0.6000E-01  0.6000E-01
    -30.903  0.0000E+00  0.0000E+00  0.6000E-01  0.6000E-01
    -30.769  0.0000E+00  0.0000E+00  0.6000E-01  0.6000E-01
    -30.634  0.0000E+00  0.0000E+00  0.6000E-01  0.6000E-01
    -30.500  0.0000E+00  0.0000E+00  0.6000E-01  0.6000E-01
    -30.366  0.0000E+00  0.0000E+00  0.6000E-01  0.6000E-01
    -30.232  0.0000E+00  0.0000E+00  0.6000E-01  0.6000E-01
    -30.098  0.0000E+00  0.0000E+00  0.6000E-01  0.6000E-01
    -29.964  0.0000E+00  0.0000E+00  0.6000E-01  0.6000E-01
    -29.830  0.0000E+00  0.0000E+00  0.6000E-01  0.6000E-01
    -29.696  0.0000E+00  0.0000E+00  0.6000E-01  0.6000E-01
    -29.561  0.0000E+00  0.0000E+00  0.6000E-01  0.6000E-01
    -29.427  0.0000E+00  0.0000E+00  0.6000E-01  0.6000E-01
    -29.293  0.0000E+00  0.0000E+00  0.6000E-01  0.6000E-01
    -29.159  0.0000E+00  0.0000E+00  0.6000E-01  0.6000E-01
    -29.025  0.0000E+00  0.0000E+00  0.6000E-01  0.6000E-01
    -28.891  0.0000E+00  0.0000E+00  0.6000E-01  0.6000E-01
    -28.757  0.2759E-17  0.0000E+00  0.6000E-01  0.6000E-01
    -28.623  0.1079E-06  0.0000E+00  0.6000E-01  0.6000E-01
    -28.489  0.6376E-02  0.0000E+00  0.6086E-01  0.6000E-01
    -28.354  0.2872E-01  0.0000E+00  0.6471E-01  0.6000E-01
    -28.220  0.1461E-01  0.0000E+00  0.6667E-01  0.6000E-01
    -28.086  0.4384E-05  0.0000E+00  0.6667E-01  0.6000E-01
    -27.952  0.2174E-14  0.0000E+00  0.6667E-01  0.6000E-01
    -27.818  0.0000E+00  0.0000E+00  0.6667E-01  0.6000E-01
    -27.684  0.0000E+00  0.0000E+00  0.6667E-01  0.6000E-01
    -27.550  0.0000E+00  0.6898E-16  0.6667E-01  0.6000E-01
    -27.416  0.0000E+00  0.7205E-06  0.6667E-01  0.6000E-01
    -27.281  0.0000E+00  0.1019E-01  0.6667E-01  0.6137E-01
    -27.147  0.0000E+00  0.2621E-01  0.6667E-01  0.6488E-01
    -27.013  0.0000E+00  0.1330E-01  0.6667E-01  0.6667E-01
    -26.879  0.0000E+00  0.2622E-05  0.6667E-01  0.6667E-01
    -26.745  0.0000E+00  0.8002E-15  0.6667E-01  0.6667E-01
    -26.611  0.0000E+00  0.0000E+00  0.6667E-01  0.6667E-01
    -26.477  0.0000E+00  0.0000E+00  0.6667E-01  0.6667E-01
    -26.343  0.0000E+00  0.0000E+00  0.6667E-01  0.6667E-01
    -26.209  0.0000E+00  0.0000E+00  0.6667E-01  0.6667E-01
    -26.074  0.0000E+00  0.0000E+00  0.6667E-01  0.6667E-01
    -25.940  0.0000E+00  0.0000E+00  0.6667E-01  0.6667E-01
    -25.806  0.0000E+00  0.0000E+00  0.6667E-01  0.6667E-01
    -25.672  0.0000E+00  0.0000E+00  0.6667E-01  0.6667E-01
    -25.538  0.0000E+00  0.0000E+00  0.6667E-01  0.6667E-01
    -25.404  0.0000E+00  0.0000E+00  0.6667E-01  0.6667E-01
    -25.270  0.0000E+00  0.0000E+00  0.6667E-01  0.6667E-01
    -25.136  0.0000E+00  0.0000E+00  0.6667E-01  0.6667E-01
    -25.001  0.0000E+00  0.0000E+00  0.6667E-01  0.6667E-01
    -24.867  0.0000E+00  0.0000E+00  0.6667E-01  0.6667E-01
    -24.733  0.0000E+00  0.0000E+00  0.6667E-01  0.6667E-01
    -24.599  0.0000E+00  0.0000E+00  0.6667E-01  0.6667E-01
    -24.465  0.0000E+00  0.0000E+00  0.6667E-01  0.6667E-01
    -24.331  0.0000E+00  0.0000E+00  0.6667E-01  0.6667E-01
    -24.197  0.0000E+00  0.0000E+00  0.6667E-01  0.6667E-01
    -24.063  0.0000E+00  0.0000E+00  0.6667E-01  0.6667E-01
    -23.929  0.0000E+00  0.0000E+00  0.6667E-01  0.6667E-01
    -23.794  0.0000E+00  0.0000E+00  0.6667E-01  0.6667E-01
    -23.660  0.0000E+00  0.0000E+00  0.6667E-01  0.6667E-01
    -23.526  0.0000E+00  0.0000E+00  0.6667E-01  0.6667E-01
    -23.392  0.0000E+00  0.0000E+00  0.6667E-01  0.6667E-01
    -23.258  0.0000E+00  0.0000E+00  0.6667E-01  0.6667E-01
    -23.124  0.0000E+00  0.0000E+00  0.6667E-01  0.6667E-01
    -22.990  0.0000E+00  0.0000E+00  0.6667E-01  0.6667E-01
    -22.856  0.0000E+00  0.0000E+00  0.6667E-01  0.6667E-01
    -22.721  0.0000E+00  0.0000E+00  0.6667E-01  0.6667E-01
    -22.587  0.0000E+00  0.0000E+00  0.6667E-01  0.6667E-01
    -22.453  0.0000E+00  0.0000E+00  0.6667E-01  0.6667E-01
    -22.319  0.0000E+00  0.0000E+00  0.6667E-01  0.6667E-01
    -22.185  0.0000E+00  0.0000E+00  0.6667E-01  0.6667E-01
    -22.051  0.0000E+00  0.0000E+00  0.6667E-01  0.6667E-01
    -21.917  0.1442E-09  0.0000E+00  0.6667E-01  0.6667E-01
    -21.783  0.6943E-03  0.0000E+00  0.6676E-01  0.6667E-01
    -21.649  0.2341E-01  0.8044E-10  0.6990E-01  0.6667E-01
    -21.514  0.7473E-03  0.5541E-03  0.7000E-01  0.6674E-01
    -21.380  0.1333E-01  0.3688E-01  0.7179E-01  0.7169E-01
    -21.246  0.2326E-01  0.1563E-01  0.7491E-01  0.7378E-01
    -21.112  0.8762E-01  0.8682E-01  0.8666E-01  0.8543E-01
    -20.978  0.8847E-01  0.8463E-01  0.9852E-01  0.9678E-01
    -20.844  0.1131E+00  0.1025E+00  0.1137E+00  0.1105E+00
    -20.710  0.1585E+00  0.1809E+00  0.1350E+00  0.1348E+00
    -20.576  0.6174E-01  0.6878E-01  0.1432E+00  0.1440E+00
    -20.442  0.3280E-01  0.5506E-01  0.1476E+00  0.1514E+00
    -20.307  0.3564E-01  0.1916E-01  0.1524E+00  0.1540E+00
    -20.173  0.6997E-01  0.6154E-01  0.1618E+00  0.1622E+00
    -20.039  0.3136E-01  0.3212E-01  0.1660E+00  0.1665E+00
    -19.905  0.1564E-01  0.5292E-02  0.1681E+00  0.1672E+00
    -19.771  0.9587E-01  0.8264E-01  0.1810E+00  0.1783E+00
    -19.637  0.4163E-01  0.4683E-01  0.1865E+00  0.1846E+00
    -19.503  0.2223E-01  0.1541E-01  0.1895E+00  0.1867E+00
    -19.369  0.3584E-02  0.2880E-04  0.1900E+00  0.1867E+00
    -19.234  0.1838E-01  0.1871E-01  0.1925E+00  0.1892E+00
    -19.100  0.6457E-02  0.6116E-02  0.1933E+00  0.1900E+00
    -18.966  0.1133E-06  0.4357E-04  0.1933E+00  0.1900E+00
    -18.832  0.6902E-03  0.2011E-01  0.1934E+00  0.1927E+00
    -18.698  0.1140E+00  0.9676E-01  0.2087E+00  0.2057E+00
    -18.564  0.2231E+00  0.2438E+00  0.2386E+00  0.2384E+00
    -18.430  0.1943E+00  0.1833E+00  0.2647E+00  0.2630E+00
    -18.296  0.1437E+00  0.1235E+00  0.2840E+00  0.2795E+00
    -18.162  0.1105E+00  0.1089E+00  0.2988E+00  0.2941E+00
    -18.027  0.4143E-01  0.6685E-01  0.3043E+00  0.3031E+00
    -17.893  0.1736E-01  0.1709E-02  0.3067E+00  0.3033E+00
    -17.759  0.1323E-04  0.1585E-08  0.3067E+00  0.3033E+00
    -17.625  0.4448E-03  0.0000E+00  0.3067E+00  0.3033E+00
    -17.491  0.2329E-01  0.1005E-09  0.3098E+00  0.3033E+00
    -17.357  0.1202E-02  0.6024E-03  0.3100E+00  0.3034E+00
    -17.223  0.3696E-01  0.2609E-01  0.3150E+00  0.3069E+00
    -17.089  0.2973E-01  0.4560E-01  0.3190E+00  0.3130E+00
    -16.954  0.7975E-01  0.9187E-01  0.3296E+00  0.3254E+00
    -16.820  0.2745E-01  0.9812E-02  0.3333E+00  0.3267E+00
    -16.686  0.1156E-04  0.1721E-03  0.3333E+00  0.3267E+00
    -16.552  0.1894E-02  0.2245E-01  0.3336E+00  0.3297E+00
    -16.418  0.2280E-01  0.2381E-01  0.3366E+00  0.3329E+00
    -16.284  0.4073E-01  0.5426E-01  0.3421E+00  0.3402E+00
    -16.150  0.1033E+00  0.5606E-01  0.3560E+00  0.3477E+00
    -16.016  0.6145E-01  0.6805E-01  0.3642E+00  0.3568E+00
    -15.882  0.1116E+00  0.1013E+00  0.3792E+00  0.3704E+00
    -15.747  0.7969E-01  0.8970E-01  0.3899E+00  0.3824E+00
    -15.613  0.2291E-01  0.1616E-01  0.3929E+00  0.3846E+00
    -15.479  0.1153E+00  0.1183E+00  0.4084E+00  0.4005E+00
    -15.345  0.1196E-01  0.2130E-01  0.4100E+00  0.4033E+00
    -15.211  0.1434E-06  0.1198E-05  0.4100E+00  0.4033E+00
    -15.077  0.0000E+00  0.0000E+00  0.4100E+00  0.4033E+00
    -14.943  0.0000E+00  0.0000E+00  0.4100E+00  0.4033E+00
    -14.809  0.0000E+00  0.0000E+00  0.4100E+00  0.4033E+00
    -14.674  0.0000E+00  0.2074E-14  0.4100E+00  0.4033E+00
    -14.540  0.0000E+00  0.4276E-05  0.4100E+00  0.4033E+00
    -14.406  0.0000E+00  0.1453E-01  0.4100E+00  0.4053E+00
    -14.272  0.0000E+00  0.1032E-01  0.4100E+00  0.4067E+00
    -14.138  0.0000E+00  0.7977E-02  0.4100E+00  0.4077E+00
    -14.004  0.0000E+00  0.1687E-01  0.4100E+00  0.4100E+00
    -13.870  0.0000E+00  0.1086E-04  0.4100E+00  0.4100E+00
    -13.736  0.0000E+00  0.1324E-13  0.4100E+00  0.4100E+00
    -13.602  0.0000E+00  0.0000E+00  0.4100E+00  0.4100E+00
    -13.467  0.0000E+00  0.0000E+00  0.4100E+00  0.4100E+00
    -13.333  0.0000E+00  0.0000E+00  0.4100E+00  0.4100E+00
    -13.199  0.0000E+00  0.0000E+00  0.4100E+00  0.4100E+00
    -13.065  0.0000E+00  0.0000E+00  0.4100E+00  0.4100E+00
    -12.931  0.0000E+00  0.0000E+00  0.4100E+00  0.4100E+00
    -12.797  0.0000E+00  0.0000E+00  0.4100E+00  0.4100E+00
    -12.663  0.0000E+00  0.0000E+00  0.4100E+00  0.4100E+00
    -12.529  0.0000E+00  0.0000E+00  0.4100E+00  0.4100E+00
    -12.394  0.0000E+00  0.0000E+00  0.4100E+00  0.4100E+00
    -12.260  0.0000E+00  0.0000E+00  0.4100E+00  0.4100E+00
    -12.126  0.0000E+00  0.0000E+00  0.4100E+00  0.4100E+00
    -11.992  0.0000E+00  0.0000E+00  0.4100E+00  0.4100E+00
    -11.858  0.0000E+00  0.0000E+00  0.4100E+00  0.4100E+00
    -11.724  0.0000E+00  0.0000E+00  0.4100E+00  0.4100E+00
    -11.590  0.0000E+00  0.0000E+00  0.4100E+00  0.4100E+00
    -11.456  0.0000E+00  0.0000E+00  0.4100E+00  0.4100E+00
    -11.322  0.0000E+00  0.0000E+00  0.4100E+00  0.4100E+00
    -11.187  0.0000E+00  0.0000E+00  0.4100E+00  0.4100E+00
    -11.053  0.0000E+00  0.0000E+00  0.4100E+00  0.4100E+00
    -10.919  0.0000E+00  0.0000E+00  0.4100E+00  0.4100E+00
    -10.785  0.0000E+00  0.0000E+00  0.4100E+00  0.4100E+00
    -10.651  0.0000E+00  0.0000E+00  0.4100E+00  0.4100E+00
    -10.517  0.0000E+00  0.0000E+00  0.4100E+00  0.4100E+00
    -10.383  0.0000E+00  0.0000E+00  0.4100E+00  0.4100E+00
    -10.249  0.0000E+00  0.0000E+00  0.4100E+00  0.4100E+00
    -10.114  0.0000E+00  0.0000E+00  0.4100E+00  0.4100E+00
     -9.980  0.0000E+00  0.0000E+00  0.4100E+00  0.4100E+00
     -9.846  0.0000E+00  0.3350E-11  0.4100E+00  0.4100E+00
     -9.712  0.0000E+00  0.1450E-03  0.4100E+00  0.4100E+00
     -9.578  0.1007E-15  0.2218E-01  0.4100E+00  0.4130E+00
     -9.444  0.8844E-06  0.1726E-01  0.4100E+00  0.4153E+00
     -9.310  0.1075E-01  0.5802E-01  0.4114E+00  0.4231E+00
     -9.176  0.4092E-01  0.2455E-01  0.4169E+00  0.4264E+00
     -9.042  0.7123E-01  0.5151E-01  0.4265E+00  0.4333E+00
     -8.907  0.1432E+00  0.4883E-01  0.4457E+00  0.4398E+00
     -8.773  0.5397E-01  0.1516E-02  0.4529E+00  0.4400E+00
     -8.639  0.3222E-02  0.2312E-01  0.4534E+00  0.4431E+00
     -8.505  0.3506E-01  0.1396E-02  0.4581E+00  0.4433E+00
     -8.371  0.1441E-01  0.9491E-09  0.4600E+00  0.4433E+00
     -8.237  0.7672E-04  0.3631E-03  0.4600E+00  0.4434E+00
     -8.103  0.2111E-01  0.2319E-01  0.4628E+00  0.4465E+00
     -7.969  0.3670E-02  0.2032E-01  0.4633E+00  0.4492E+00
     -7.835  0.1615E-07  0.5834E-02  0.4633E+00  0.4500E+00
     -7.700  0.0000E+00  0.7802E-07  0.4633E+00  0.4500E+00
     -7.566  0.0000E+00  0.0000E+00  0.4633E+00  0.4500E+00
     -7.432  0.0000E+00  0.1034E-09  0.4633E+00  0.4500E+00
     -7.298  0.1532E-09  0.6093E-03  0.4633E+00  0.4501E+00
     -7.164  0.7111E-03  0.3964E-01  0.4634E+00  0.4554E+00
     -7.030  0.3137E-01  0.1066E+00  0.4676E+00  0.4697E+00
     -6.896  0.1792E-01  0.2308E-02  0.4700E+00  0.4700E+00
     -6.762  0.2684E-01  0.7401E-09  0.4736E+00  0.4700E+00
     -6.627  0.2250E-01  0.2759E-17  0.4767E+00  0.4700E+00
     -6.493  0.6976E-04  0.1131E-06  0.4767E+00  0.4700E+00
     -6.359  0.2576E-03  0.6455E-02  0.4767E+00  0.4709E+00
     -6.225  0.2300E-01  0.1940E-01  0.4798E+00  0.4735E+00
     -6.091  0.2376E-01  0.4565E-01  0.4830E+00  0.4796E+00
     -5.957  0.2058E-01  0.3543E-02  0.4857E+00  0.4801E+00
     -5.823  0.2580E-01  0.2686E-01  0.4892E+00  0.4837E+00
     -5.689  0.6791E-01  0.7593E-01  0.4983E+00  0.4939E+00
     -5.555  0.1248E+00  0.1302E+00  0.5150E+00  0.5113E+00
     -5.420  0.1897E+00  0.1868E+00  0.5405E+00  0.5364E+00
     -5.286  0.1530E+00  0.1451E+00  0.5610E+00  0.5558E+00
     -5.152  0.1076E+00  0.1064E+00  0.5754E+00  0.5701E+00
     -5.018  0.1098E+00  0.9624E-01  0.5902E+00  0.5830E+00
     -4.884  0.8385E-01  0.5230E-01  0.6014E+00  0.5900E+00
     -4.750  0.1502E-01  0.3195E-01  0.6034E+00  0.5943E+00
     -4.616  0.2478E-01  0.7081E-01  0.6068E+00  0.6038E+00
     -4.482  0.1133E+00  0.1057E+00  0.6219E+00  0.6180E+00
     -4.347  0.1700E+00  0.1833E+00  0.6447E+00  0.6426E+00
     -4.213  0.2146E+00  0.2060E+00  0.6735E+00  0.6702E+00
     -4.079  0.1100E+00  0.1147E+00  0.6883E+00  0.6856E+00
     -3.945  0.7577E-01  0.3331E-01  0.6984E+00  0.6900E+00
     -3.811  0.4643E-01  0.3640E-01  0.7047E+00  0.6949E+00
     -3.677  0.1150E+00  0.1194E+00  0.7201E+00  0.7109E+00
     -3.543  0.1076E+00  0.9665E-01  0.7345E+00  0.7239E+00
     -3.409  0.1688E+00  0.1833E+00  0.7572E+00  0.7485E+00
     -3.275  0.1850E+00  0.1957E+00  0.7820E+00  0.7747E+00
     -3.140  0.1369E+00  0.1092E+00  0.8003E+00  0.7894E+00
     -3.006  0.1324E+00  0.1377E+00  0.8181E+00  0.8078E+00
     -2.872  0.2251E+00  0.2209E+00  0.8483E+00  0.8375E+00
     -2.738  0.1183E+00  0.1225E+00  0.8641E+00  0.8539E+00
     -2.604  0.1657E+00  0.1223E+00  0.8864E+00  0.8703E+00
     -2.470  0.1215E+00  0.7240E-01  0.9027E+00  0.8800E+00
     -2.336  0.5268E-02  0.2253E-01  0.9034E+00  0.8830E+00
     -2.202  0.4403E-01  0.2485E-01  0.9093E+00  0.8864E+00
     -2.067  0.5408E-02  0.2314E-01  0.9100E+00  0.8895E+00
     -1.933  0.2073E-07  0.2129E-01  0.9100E+00  0.8923E+00
     -1.799  0.2838E-02  0.3306E-01  0.9104E+00  0.8968E+00
     -1.665  0.2314E-01  0.2714E-01  0.9135E+00  0.9004E+00
     -1.531  0.2335E-01  0.2174E-01  0.9166E+00  0.9033E+00
     -1.397  0.1694E-01  0.1076E-03  0.9189E+00  0.9033E+00
     -1.263  0.3123E-01  0.1828E-11  0.9231E+00  0.9033E+00
     -1.129  0.1924E-02  0.3176E-04  0.9233E+00  0.9033E+00
     -0.995  0.2271E-08  0.1939E-01  0.9233E+00  0.9059E+00
     -0.860  0.0000E+00  0.1672E-01  0.9233E+00  0.9082E+00
     -0.726  0.0000E+00  0.1356E-01  0.9233E+00  0.9100E+00
     -0.592  0.4823E-09  0.1333E-04  0.9233E+00  0.9100E+00
     -0.458  0.1118E-02  0.1692E-01  0.9235E+00  0.9123E+00
     -0.324  0.7119E-01  0.7237E-01  0.9330E+00  0.9220E+00
     -0.190  0.2635E+00  0.2713E+00  0.9684E+00  0.9584E+00
     -0.056  0.6179E+00  0.6457E+00  0.1051E+01  0.1045E+01
      0.078  0.8899E+00  0.9158E+00  0.1171E+01  0.1168E+01
      0.213  0.6066E+00  0.6235E+00  0.1252E+01  0.1251E+01
      0.347  0.2088E+00  0.2128E+00  0.1280E+01  0.1280E+01
      0.481  0.3671E-03  0.4776E-03  0.1280E+01  0.1280E+01
      0.615  0.4819E-11  0.9923E-11  0.1280E+01  0.1280E+01
      0.749  0.0000E+00  0.0000E+00  0.1280E+01  0.1280E+01
      0.883  0.0000E+00  0.0000E+00  0.1280E+01  0.1280E+01
      1.017  0.0000E+00  0.0000E+00  0.1280E+01  0.1280E+01
      1.151  0.0000E+00  0.0000E+00  0.1280E+01  0.1280E+01
      1.285  0.0000E+00  0.0000E+00  0.1280E+01  0.1280E+01
      1.420  0.0000E+00  0.0000E+00  0.1280E+01  0.1280E+01
      1.554  0.0000E+00  0.0000E+00  0.1280E+01  0.1280E+01
      1.688  0.0000E+00  0.0000E+00  0.1280E+01  0.1280E+01
      1.822  0.0000E+00  0.0000E+00  0.1280E+01  0.1280E+01
      1.956  0.0000E+00  0.0000E+00  0.1280E+01  0.1280E+01
      2.090  0.0000E+00  0.0000E+00  0.1280E+01  0.1280E+01
