 vasp.6.4.3 19Mar24 (build Mar 01 2025 18:03:59) gamma-only                     
  
 executed on              Shaheen date 2025.04.27  15:13:28
 running  192 mpi-ranks, on    1 nodes
 distrk:  each k-point on  192 cores,    1 groups
 distr:  one band on NCORE=   4 cores,   48 groups


--------------------------------------------------------------------------------------------------------


 INCAR:
   ISTART = 1            (Read existing wavefunction, if there)
   LREAL = .FALSE.       (Projection operators: automatic)
   ENCUT = 520        (Cut-off energy for plane wave basis set, in eV)
   PREC = Accurate   (Precision level: Normal or Accurate, set Accurate when perform structure lattice relaxation calculation)
   LWAVE = .FALSE.        (Write WAVECAR or not)
   LCHARG = .FALSE.        (Write CHGCAR or not)
   ADDGRID = .TRUE.        (Increase grid, helps GGA convergence)
   LASPH = .TRUE.        (Give more accurate total energies and band structure calculations)
   PREC = Accurate      (Accurate strictly avoids any aliasing or wrap around errors)
   ISMEAR = 0            (Gaussian smearing, metals:1)
   SIGMA = 0.05         (Smearing value in eV, metals:0.2)
   NELM = 90           (Max electronic SCF steps)
   NELMIN = 6            (Min electronic SCF steps)
   EDIFF = 1E-06        (SCF energy convergence, in eV)
   NSW = 300          (Max ionic steps)
   IBRION = 2            (Algorithm: 0-MD, 1-Quasi-New, 2-CG)
   ISIF = 2            (Stress/relaxation: 2-Ions, 3-Shape/Ions/V, 4-Shape/Ions)
   EDIFFG = -2E-02        (Ionic convergence, eV/AA)
   NCORE = 4
   ISPIN = 2
   MAGMOM = 18*1.0 51*0.6 2*0.6
   LDAU = .TRUE.        (Activate DFT+U)
   LDAUTYPE = 2            (Dudarev, only U-J matters)
   LDAUL = 3 -1 2        (Orbitals for each species)
   LDAUU = 5.0  0 2.0         (U for each species)
   LDAUJ = 0  0  0       (J for each species)
   LMAXMIX = 6            (Mixing cut-off, 4-d, 6-f)

 POTCAR:    PAW_PBE Ce 23Dec2003                  
 POTCAR:    PAW_PBE O 08Apr2002                   
 POTCAR:    PAW_PBE Ir 06Sep2000                  
 -----------------------------------------------------------------------------
|                                                                             |
|           W    W    AA    RRRRR   N    N  II  N    N   GGGG   !!!           |
|           W    W   A  A   R    R  NN   N  II  NN   N  G    G  !!!           |
|           W    W  A    A  R    R  N N  N  II  N N  N  G       !!!           |
|           W WW W  AAAAAA  RRRRR   N  N N  II  N  N N  G  GGG   !            |
|           WW  WW  A    A  R   R   N   NN  II  N   NN  G    G                |
|           W    W  A    A  R    R  N    N  II  N    N   GGGG   !!!           |
|                                                                             |
|     For optimal performance we recommend to set                             |
|       NCORE = 2 up to number-of-cores-per-socket                            |
|     NCORE specifies how many cores store one orbital (NPAR=cpu/NCORE).      |
|     This setting can greatly improve the performance of VASP for DFT.       |
|     The default, NCORE=1 might be grossly inefficient on modern             |
|     multi-core architectures or massively parallel machines. Do your        |
|     own testing! More info at https://www.vasp.at/wiki/index.php/NCORE      |
|     Unfortunately you need to use the default for GW and RPA                |
|     calculations (for HF NCORE is supported but not extensively tested      |
|     yet).                                                                   |
|                                                                             |
 -----------------------------------------------------------------------------

 POTCAR:    PAW_PBE Ce 23Dec2003                  
   SHA256 =  00bd3101dba980d69718c826e9aff48526de61f93249f80fb0d1cde9afca69b7 Ce/POTCAR             
   COPYR  = (c) Copyright 23Dec2003 Georg Kresse                                                    
   COPYR  = This file is part of the software VASP. Any use, copying, and all other rights are regul
   COPYR  = If you do not have a valid VASP license, you may not use, copy or distribute this file. 
   VRHFIN =Ce : [core= Kr 4d10]                                                                     
   LEXCH  = PE                                                                                      
   EATOM  =  1063.0861 eV,   78.1346 Ry                                                             
                                                                                                    
   TITEL  = PAW_PBE Ce 23Dec2003                                                                    
   LULTRA =        F    use ultrasoft PP ?                                                          
   IUNSCR =        1    unscreen: 0-lin 1-nonlin 2-no                                               
   RPACOR =    1.800    partial core radius                                                         
   POMASS =  140.115; ZVAL   =   12.000    mass and valenz                                          
   RCORE  =    2.700    outmost cutoff radius                                                       
   RWIGS  =    2.500; RWIGS  =    1.323    wigner-seitz radius (au A)                               
   ENMAX  =  273.042; ENMIN  =  204.781 eV                                                          
   RCLOC  =    1.810    cutoff for local pot                                                        
   LCOR   =        T    correct aug charges                                                         
   LPAW   =        T    paw PP                                                                      
   EAUG   =  580.196                                                                                
   DEXC   =    0.000                                                                                
   RMAX   =    2.749    core radius for proj-oper                                                   
   RAUG   =    1.300    factor for augmentation sphere                                              
   RDEP   =    2.810    radius for radial grids                                                     
   RDEPT  =    2.162    core radius for aug-charge                                                  
                                                                                                    
   Atomic configuration                                                                             
   14 entries                                                                                       
     n  l   j            E        occ.                                                              
     1  0  0.50    -40258.9816   2.0000                                                             
     2  0  0.50     -6445.4884   2.0000                                                             
     2  1  1.50     -5771.7470   6.0000                                                             
     3  0  0.50     -1387.9739   2.0000                                                             
     3  1  1.50     -1173.8158   6.0000                                                             
     3  2  2.50      -869.9108  10.0000                                                             
     4  0  0.50      -280.8706   2.0000                                                             
     4  1  1.50      -210.9815   6.0000                                                             
     4  2  2.50      -110.4558  10.0000                                                             
     5  0  0.50       -40.5819   2.0000                                                             
     6  0  0.50        -3.7444   2.0000                                                             
     5  1  1.50       -23.2188   6.0000                                                             
     5  2  2.50        -3.0598   1.0000                                                             
     4  3  2.50        -5.3970   1.0000                                                             
   Description                                                                                      
     l       E           TYP  RCUT    TYP  RCUT                                                     
     0    -40.5819164     23  1.500                                                                 
     0     -3.7443793     23  2.300                                                                 
     1    -23.2188445     23  2.000                                                                 
     1     40.8174780     23  2.300                                                                 
     2     -3.0597556     23  2.500                                                                 
     2     13.6058260     23  2.500                                                                 
     3     -5.3970469     23  2.700                                                                 
     3     -5.8505052     23  2.700                                                                 
  local pseudopotential read in
  partial core-charges read in
  partial kinetic energy density read in
  atomic valenz-charges read in
  non local Contribution for L=           0  read in
    real space projection operators read in
  non local Contribution for L=           0  read in
    real space projection operators read in
  non local Contribution for L=           1  read in
    real space projection operators read in
  non local Contribution for L=           1  read in
    real space projection operators read in
  non local Contribution for L=           2  read in
    real space projection operators read in
  non local Contribution for L=           2  read in
    real space projection operators read in
  non local Contribution for L=           3  read in
    real space projection operators read in
  non local Contribution for L=           3  read in
    real space projection operators read in
    PAW grid and wavefunctions read in
 
   number of l-projection  operators is LMAX  =           8
   number of lm-projection operators is LMMAX =          32
 
 POTCAR:    PAW_PBE O 08Apr2002                   
   SHA256 =  818f92134a0a090dccd8ba1447fa70422a3b330e708bb4f08108d8ae51209ddf O/POTCAR              
   COPYR  = (c) Copyright 08Apr2002 Georg Kresse                                                    
   COPYR  = This file is part of the software VASP. Any use, copying, and all other rights are regul
   COPYR  = If you do not have a valid VASP license, you may not use, copy or distribute this file. 
   VRHFIN =O: s2p4                                                                                  
   LEXCH  = PE                                                                                      
   EATOM  =   432.3788 eV,   31.7789 Ry                                                             
                                                                                                    
   TITEL  = PAW_PBE O 08Apr2002                                                                     
   LULTRA =        F    use ultrasoft PP ?                                                          
   IUNSCR =        1    unscreen: 0-lin 1-nonlin 2-no                                               
   RPACOR =    1.200    partial core radius                                                         
   POMASS =   16.000; ZVAL   =    6.000    mass and valenz                                          
   RCORE  =    1.520    outmost cutoff radius                                                       
   RWIGS  =    1.550; RWIGS  =    0.820    wigner-seitz radius (au A)                               
   ENMAX  =  400.000; ENMIN  =  300.000 eV                                                          
   ICORE  =        2    local potential                                                             
   LCOR   =        T    correct aug charges                                                         
   LPAW   =        T    paw PP                                                                      
   EAUG   =  605.392                                                                                
   DEXC   =    0.000                                                                                
   RMAX   =    1.553    core radius for proj-oper                                                   
   RAUG   =    1.300    factor for augmentation sphere                                              
   RDEP   =    1.550    radius for radial grids                                                     
   RDEPT  =    1.329    core radius for aug-charge                                                  
                                                                                                    
   Atomic configuration                                                                             
    4 entries                                                                                       
     n  l   j            E        occ.                                                              
     1  0  0.50      -514.6923   2.0000                                                             
     2  0  0.50       -23.9615   2.0000                                                             
     2  1  0.50        -9.0305   4.0000                                                             
     3  2  1.50        -9.5241   0.0000                                                             
   Description                                                                                      
     l       E           TYP  RCUT    TYP  RCUT                                                     
     0    -23.9615318     23  1.200                                                                 
     0     -9.5240782     23  1.200                                                                 
     1     -9.0304911     23  1.520                                                                 
     1      8.1634956     23  1.520                                                                 
     2     -9.5240782      7  1.500                                                                 
  local pseudopotential read in
  partial core-charges read in
  partial kinetic energy density read in
  kinetic energy density of atom read in
  atomic valenz-charges read in
  non local Contribution for L=           0  read in
    real space projection operators read in
  non local Contribution for L=           0  read in
    real space projection operators read in
  non local Contribution for L=           1  read in
    real space projection operators read in
  non local Contribution for L=           1  read in
    real space projection operators read in
    PAW grid and wavefunctions read in
 
   number of l-projection  operators is LMAX  =           4
   number of lm-projection operators is LMMAX =           8
 
 POTCAR:    PAW_PBE Ir 06Sep2000                  
   SHA256 =  7c6af8d4d487b237782eb51e6f62977b27a1da78c3c96acd1cebefd6c308f120 Ir/POTCAR             
   COPYR  = (c) Copyright 06Sep2000 Georg Kresse                                                    
   COPYR  = This file is part of the software VASP. Any use, copying, and all other rights are regul
   COPYR  = If you do not have a valid VASP license, you may not use, copy or distribute this file. 
   VRHFIN =Ir: s1d8                                                                                 
   LEXCH  = PE                                                                                      
   EATOM  =   560.1833 eV,   41.1723 Ry                                                             
                                                                                                    
   TITEL  = PAW_PBE Ir 06Sep2000                                                                    
   LULTRA =        F    use ultrasoft PP ?                                                          
   IUNSCR =        1    unscreen: 0-lin 1-nonlin 2-no                                               
   RPACOR =    2.250    partial core radius                                                         
   POMASS =  192.220; ZVAL   =    9.000    mass and valenz                                          
   RCORE  =    2.600    outmost cutoff radius                                                       
   RWIGS  =    2.690; RWIGS  =    1.423    wigner-seitz radius (au A)                               
   ENMAX  =  210.864; ENMIN  =  158.148 eV                                                          
   RCLOC  =    1.857    cutoff for local pot                                                        
   LCOR   =        T    correct aug charges                                                         
   LPAW   =        T    paw PP                                                                      
   EAUG   =  318.962                                                                                
   DEXC   =    0.000                                                                                
   RMAX   =    2.667    core radius for proj-oper                                                   
   RAUG   =    1.300    factor for augmentation sphere                                              
   RDEP   =    2.748    radius for radial grids                                                     
   RDEPT  =    2.300    core radius for aug-charge                                                  
                                                                                                    
   Atomic configuration                                                                             
   16 entries                                                                                       
     n  l   j            E        occ.                                                              
     1  0  0.50    -76100.0449   2.0000                                                             
     2  0  0.50    -13308.1683   2.0000                                                             
     2  1  1.50    -11558.0021   6.0000                                                             
     3  0  0.50     -3110.7274   2.0000                                                             
     3  1  1.50     -2599.2109   6.0000                                                             
     3  2  2.50     -2037.1515  10.0000                                                             
     4  0  0.50      -661.6001   2.0000                                                             
     4  1  1.50      -493.8981   6.0000                                                             
     4  2  2.50      -288.1909  10.0000                                                             
     4  3  3.50       -59.5718  14.0000                                                             
     5  0  0.50       -95.3879   2.0000                                                             
     5  1  1.50       -52.2747   6.0000                                                             
     5  2  2.50        -5.4180   8.0000                                                             
     6  0  0.50        -5.5479   1.0000                                                             
     6  1  1.50        -6.8029   0.0000                                                             
     5  3  2.50        -1.3606   0.0000                                                             
   Description                                                                                      
     l       E           TYP  RCUT    TYP  RCUT                                                     
     2     -5.4179967     23  2.600                                                                 
     2     -6.7785793     23  2.600                                                                 
     0     -5.5478636     23  2.600                                                                 
     0      2.2542272     23  2.600                                                                 
     1     -2.7211652     23  2.600                                                                 
     1     20.4087390     23  2.600                                                                 
  local pseudopotential read in
  partial core-charges read in
  partial kinetic energy density read in
  atomic valenz-charges read in
  non local Contribution for L=           2  read in
    real space projection operators read in
  non local Contribution for L=           2  read in
    real space projection operators read in
  non local Contribution for L=           0  read in
    real space projection operators read in
  non local Contribution for L=           0  read in
    real space projection operators read in
  non local Contribution for L=           1  read in
    real space projection operators read in
  non local Contribution for L=           1  read in
    real space projection operators read in
    PAW grid and wavefunctions read in
 
   number of l-projection  operators is LMAX  =           6
   number of lm-projection operators is LMMAX =          18
 
 -----------------------------------------------------------------------------
|                                                                             |
|               ----> ADVICE to this user running VASP <----                  |
|                                                                             |
|     You have a (more or less) 'large supercell' and for larger cells it     |
|     might be more efficient to use real-space projection operators.         |
|     Therefore, try LREAL= Auto in the INCAR file.                           |
|     Mind: For very accurate calculation, you might also keep the            |
|     reciprocal projection scheme (i.e. LREAL=.FALSE.).                      |
|                                                                             |
 -----------------------------------------------------------------------------

  PAW_PBE Ce 23Dec2003                  :
 energy of atom  1       EATOM=-1063.0861
 kinetic energy error for atom=    0.0133 (will be added to EATOM!!)
  PAW_PBE O 08Apr2002                   :
 energy of atom  2       EATOM= -432.3788
 kinetic energy error for atom=    0.0208 (will be added to EATOM!!)
  PAW_PBE Ir 06Sep2000                  :
 energy of atom  3       EATOM= -560.1833
 kinetic energy error for atom=    0.0013 (will be added to EATOM!!)
 
 
 POSCAR: CeO2_111_33_vO-Ir-0
  positions in direct lattice
  No initial velocities read in


 exchange-correlation table for PE
   RHO(1)=    0.500       N(1)  =     2000
   RHO(2)=  100.500       N(2)  =     4000
 


--------------------------------------------------------------------------------------------------------


 ion  position               nearest neighbor table
   1  0.000  0.000  0.460-  22 2.37  61 2.37  52 2.37  31 2.37  21 2.37  62 2.37  19 2.37  23 2.37

   2  0.222  0.111  0.310-  50 2.37  43 2.37  28 2.37  25 2.37  23 2.37  20 2.37  21 2.37
   3  0.333  0.000  0.460-  27 2.37  51 2.37  21 2.37  52 2.37  57 2.37  28 2.37  24 2.37  26 2.37

   4  0.556  0.111  0.310-  48 2.37  30 2.37  33 2.37  55 2.37  26 2.37  25 2.37  28 2.37
   5  0.667  0.000  0.460-  32 2.37  56 2.37  62 2.37  31 2.37  26 2.37  29 2.37  33 2.37  57 2.37
                            70 3.11
   6  0.889  0.111  0.310-  60 2.37  38 2.37  20 2.37  23 2.37  33 2.37  30 2.37  31 2.37
   7  0.000  0.333  0.460-  31 2.37  22 2.37  32 2.37  36 2.37  46 2.37  38 2.37  34 2.37  37 2.37

   8  0.222  0.444  0.310-  20 2.37  38 2.37  43 2.37  40 2.37  36 2.37  58 2.37  35 2.37
   9  0.333  0.333  0.460-  21 2.37  22 2.37  27 2.37  36 2.37  39 2.37  43 2.37  42 2.37  41 2.37
                            71 3.14
  10  0.556  0.444  0.310-  48 2.37  25 2.37  45 2.37  41 2.37  63 2.37  43 2.37  40 2.37
  11  0.667  0.333  0.460-  26 2.37  32 2.37  46 2.37  41 2.37  44 2.37  48 2.37  47 2.37  27 2.37
                            69 2.37
  12  0.889  0.444  0.310-  30 2.37  38 2.37  48 2.37  35 2.37  46 2.37  53 2.37  45 2.37
  13  0.000  0.667  0.460-  52 2.37  61 2.37  51 2.37  47 2.37  37 2.37  53 2.37  49 2.37  46 2.37

  14  0.222  0.778  0.310-  35 2.37  28 2.37  58 2.37  55 2.37  53 2.37  50 2.37  51 2.37
  15  0.333  0.667  0.460-  57 2.37  51 2.37  37 2.37  42 2.37  54 2.37  58 2.37  36 2.37  56 2.37
                            66 2.56  70 3.04
  16  0.556  0.778  0.310-  33 2.37  60 2.37  63 2.37  40 2.37  56 2.37  55 2.37  58 2.37
  17  0.667  0.667  0.460-  62 2.37  61 2.37  56 2.37  47 2.37  59 2.37  63 2.37  41 2.37  42 2.37
                            66 2.45  71 3.17
  18  0.889  0.778  0.310-  45 2.37  23 2.37  50 2.37  53 2.37  63 2.37  60 2.37  61 2.37
  19  0.000  0.000  0.572-   1 2.37
  20  0.111  0.222  0.272-   8 2.37   6 2.37   2 2.37
  21  0.222  0.111  0.422-   9 2.37   3 2.37   1 2.37   2 2.37
  22  0.111  0.222  0.497-   1 2.37   7 2.37   9 2.37
  23  0.000  0.000  0.347-  18 2.37   6 2.37   2 2.37   1 2.37
  24  0.333  0.000  0.572-   3 2.37
  25  0.444  0.222  0.272-   2 2.37  10 2.37   4 2.37
  26  0.556  0.111  0.422-  11 2.37   5 2.37   4 2.37   3 2.37
  27  0.444  0.222  0.497-   3 2.37   9 2.37  11 2.37
  28  0.333  0.000  0.347-  14 2.37   2 2.37   3 2.37   4 2.37
  29  0.667  0.000  0.572-  70 2.00   5 2.37
  30  0.778  0.222  0.272-  12 2.37   4 2.37   6 2.37
  31  0.889  0.111  0.422-   7 2.37   1 2.37   5 2.37   6 2.37
  32  0.778  0.222  0.497-   5 2.37  11 2.37   7 2.37
  33  0.667  0.000  0.347-  16 2.37   6 2.37   4 2.37   5 2.37
  34  0.000  0.333  0.572-   7 2.37
  35  0.111  0.556  0.272-  14 2.37  12 2.37   8 2.37
  36  0.222  0.444  0.422-   7 2.37   9 2.37   8 2.37  15 2.37
  37  0.111  0.556  0.497-  13 2.37  15 2.37   7 2.37
  38  0.000  0.333  0.347-   6 2.37   8 2.37  12 2.37   7 2.37
  39  0.333  0.333  0.572-  71 1.92   9 2.37
  40  0.444  0.556  0.272-  16 2.37   8 2.37  10 2.37
  41  0.556  0.444  0.422-  11 2.37  10 2.37  17 2.37   9 2.37
  42  0.444  0.556  0.497-  71 1.97  15 2.37   9 2.37  17 2.37
  43  0.333  0.333  0.347-   2 2.37   8 2.37   9 2.37  10 2.37
  44  0.667  0.333  0.572-  11 2.37
  45  0.778  0.556  0.272-  18 2.37  10 2.37  12 2.37
  46  0.889  0.444  0.422-   7 2.37  11 2.37  12 2.37  13 2.37
  47  0.778  0.556  0.497-  13 2.37  17 2.37  11 2.37
  48  0.667  0.333  0.347-   4 2.37  12 2.37  10 2.37  11 2.37
  49  0.000  0.667  0.572-  13 2.37
  50  0.111  0.889  0.272-   2 2.37  18 2.37  14 2.37
  51  0.222  0.778  0.422-   3 2.37  15 2.37  13 2.37  14 2.37
  52  0.111  0.889  0.497-  13 2.37   1 2.37   3 2.37
  53  0.000  0.667  0.347-  18 2.37  14 2.37  13 2.37  12 2.37
  54  0.333  0.667  0.572-  70 1.87  15 2.37
  55  0.444  0.889  0.272-  14 2.37   4 2.37  16 2.37
  56  0.556  0.778  0.422-   5 2.37  17 2.37  16 2.37  15 2.37
  57  0.444  0.889  0.497-  70 1.92  15 2.37   3 2.37   5 2.37
  58  0.333  0.667  0.347-  14 2.37  15 2.37   8 2.37  16 2.37
  59  0.667  0.667  0.572-  71 1.96  17 2.37
  60  0.778  0.889  0.272-   6 2.37  16 2.37  18 2.37
  61  0.889  0.778  0.422-   1 2.37  13 2.37  17 2.37  18 2.37
  62  0.778  0.889  0.497-  17 2.37   5 2.37   1 2.37
  63  0.667  0.667  0.347-  16 2.37  18 2.37  17 2.37  10 2.37
  64  0.420  0.906  0.632-  70 1.93
  65  0.562  0.764  0.642-  67 1.96  70 1.99
  66  0.559  0.773  0.516-  70 1.74  17 2.45  15 2.56
  67  0.424  0.576  0.634-  71 1.83  65 1.96
  68  0.553  0.447  0.647-  71 1.88
  69  0.565  0.437  0.517-  71 1.93  11 2.37
  70  0.492  0.831  0.573-  66 1.74  54 1.87  57 1.92  64 1.93  65 1.99  29 2.00  15 3.04   5 3.11

  71  0.492  0.505  0.578-  67 1.83  68 1.88  39 1.92  69 1.93  59 1.96  42 1.97   9 3.14  17 3.17

 
  LATTYP: Found a hexagonal cell.
 ALAT       =    11.5981998444
 C/A-ratio  =     1.8147816808
  
  Lattice vectors:
  
 A1 = (  11.5981998444,   0.0000000000,   0.0000000000)
 A2 = (  -5.7990999222,  10.0443357034,   0.0000000000)
 A3 = (   0.0000000000,   0.0000000000,  21.0482006073)


Analysis of symmetry for initial positions (statically):
=====================================================================
 Subroutine PRICEL returns:
 Original cell was already a primitive cell.
 

 Routine SETGRP: Setting up the symmetry group for a 
 hexagonal supercell.


 Subroutine GETGRP returns: Found  1 space group operations
 (whereof  1 operations were pure point group operations)
 out of a pool of 24 trial point group operations.


The static configuration has the point symmetry C_1 .


Analysis of symmetry for dynamics (positions and initial velocities):
=====================================================================
 Subroutine PRICEL returns:
 Original cell was already a primitive cell.
 

 Routine SETGRP: Setting up the symmetry group for a 
 hexagonal supercell.


 Subroutine GETGRP returns: Found  1 space group operations
 (whereof  1 operations were pure point group operations)
 out of a pool of 24 trial point group operations.


The dynamic configuration has the point symmetry C_1 .


Analysis of structural, dynamic, and magnetic symmetry:
=====================================================================
 Subroutine PRICEL returns:
 Original cell was already a primitive cell.
 

 Routine SETGRP: Setting up the symmetry group for a 
 hexagonal supercell.


 Subroutine GETGRP returns: Found  1 space group operations
 (whereof  1 operations were pure point group operations)
 out of a pool of 24 trial point group operations.


The overall configuration has the point symmetry C_1 .


 Subroutine INISYM returns: Found  1 space group operations
 (whereof  1 operations are pure point group operations),
 and found     1 'primitive' translations


----------------------------------------------------------------------------------------

                                     Primitive cell                                     

  volume of cell :    2452.0357

  direct lattice vectors                    reciprocal lattice vectors
    11.598199844  0.000000000  0.000000000     0.086220277  0.049779300  0.000000000
    -5.799099922 10.044335703  0.000000000     0.000000000  0.099558600  0.000000000
     0.000000000  0.000000000 21.048200607     0.000000000  0.000000000  0.047509999

  length of vectors
    11.598199844 11.598199844 21.048200607     0.099558600  0.099558600  0.047509999

  position of ions in fractional coordinates (direct lattice)
     0.000000000  0.000000000  0.459930000
     0.222220000  0.111110000  0.309960000
     0.333330000  0.000000000  0.459930000
     0.555560000  0.111110000  0.309960000
     0.666670000  0.000000000  0.459930000
     0.888890000  0.111110000  0.309960000
     1.000000000  0.333330000  0.459930000
     0.222220000  0.444440000  0.309960000
     0.333330000  0.333330000  0.459930000
     0.555560000  0.444440000  0.309960000
     0.666670000  0.333330000  0.459930000
     0.888890000  0.444440000  0.309960000
     1.000000000  0.666670000  0.459930000
     0.222220000  0.777780000  0.309960000
     0.333330000  0.666670000  0.459930000
     0.555560000  0.777780000  0.309960000
     0.666670000  0.666670000  0.459930000
     0.888890000  0.777780000  0.309960000
     0.000000000  0.000000000  0.572410000
     0.111110000  0.222220000  0.272470000
     0.222220000  0.111110000  0.422440000
     0.111110000  0.222220000  0.497420000
     0.000000000  0.000000000  0.347450000
     0.333330000  0.000000000  0.572410000
     0.444440000  0.222220000  0.272470000
     0.555560000  0.111110000  0.422440000
     0.444440000  0.222220000  0.497420000
     0.333330000  0.000000000  0.347450000
     0.666670000  0.000000000  0.572410000
     0.777780000  0.222220000  0.272470000
     0.888890000  0.111110000  0.422440000
     0.777780000  0.222220000  0.497420000
     0.666670000  0.000000000  0.347450000
     1.000000000  0.333330000  0.572410000
     0.111110000  0.555560000  0.272470000
     0.222220000  0.444440000  0.422440000
     0.111110000  0.555560000  0.497420000
     1.000000000  0.333330000  0.347450000
     0.333330000  0.333330000  0.572410000
     0.444440000  0.555560000  0.272470000
     0.555560000  0.444440000  0.422440000
     0.444440000  0.555560000  0.497420000
     0.333330000  0.333330000  0.347450000
     0.666670000  0.333330000  0.572410000
     0.777780000  0.555560000  0.272470000
     0.888890000  0.444440000  0.422440000
     0.777780000  0.555560000  0.497420000
     0.666670000  0.333330000  0.347450000
     1.000000000  0.666670000  0.572410000
     0.111110000  0.888890000  0.272470000
     0.222220000  0.777780000  0.422440000
     0.111110000  0.888890000  0.497420000
     1.000000000  0.666670000  0.347450000
     0.333330000  0.666670000  0.572410000
     0.444440000  0.888890000  0.272470000
     0.555560000  0.777780000  0.422440000
     0.444440000  0.888890000  0.497420000
     0.333330000  0.666670000  0.347450000
     0.666670000  0.666670000  0.572410000
     0.777780000  0.888890000  0.272470000
     0.888890000  0.777780000  0.422440000
     0.777780000  0.888890000  0.497420000
     0.666670000  0.666670000  0.347450000
     0.419950000  0.905660000  0.632220000
     0.562440000  0.763820000  0.641720000
     0.559310000  0.772770000  0.516160000
     0.424310000  0.576330000  0.634220000
     0.553130000  0.446760000  0.647090000
     0.565440000  0.436640000  0.516510000
     0.491970000  0.830620000  0.573490000
     0.491900000  0.504940000  0.578280000

  ion indices of the primitive-cell ions
   primitive index   ion index
                 1           1
                 2           2
                 3           3
                 4           4
                 5           5
                 6           6
                 7           7
                 8           8
                 9           9
                10          10
                11          11
                12          12
                13          13
                14          14
                15          15
                16          16
                17          17
                18          18
                19          19
                20          20
                21          21
                22          22
                23          23
                24          24
                25          25
                26          26
                27          27
                28          28
                29          29
                30          30
                31          31
                32          32
                33          33
                34          34
                35          35
                36          36
                37          37
                38          38
                39          39
                40          40
                41          41
                42          42
                43          43
                44          44
                45          45
                46          46
                47          47
                48          48
                49          49
                50          50
                51          51
                52          52
                53          53
                54          54
                55          55
                56          56
                57          57
                58          58
                59          59
                60          60
                61          61
                62          62
                63          63
                64          64
                65          65
                66          66
                67          67
                68          68
                69          69
                70          70
                71          71

----------------------------------------------------------------------------------------

 
 
 KPOINTS: K-Spacing Value to Generate K-Mesh: 0.03

Automatic generation of k-mesh.
 Grid dimensions read from file:
 generate k-points for:    1    1    1

 Generating k-lattice:

  Cartesian coordinates                     Fractional coordinates (reciprocal lattice)
     0.086220277  0.049779300  0.000000000     1.000000000 -0.000000000  0.000000000
     0.000000000  0.099558600  0.000000000     0.000000000  1.000000000  0.000000000
     0.000000000  0.000000000  0.047509999     0.000000000  0.000000000  1.000000000

  Length of vectors
     0.099558600  0.099558600  0.047509999

  Shift w.r.t. Gamma in fractional coordinates (k-lattice)
     0.000000000  0.000000000  0.000000000

 
 Subroutine IBZKPT returns following result:
 ===========================================
 
 Found      1 irreducible k-points:
 
 Following reciprocal coordinates:
            Coordinates               Weight
  0.000000  0.000000  0.000000      1.000000
 
 Following cartesian coordinates:
            Coordinates               Weight
  0.000000  0.000000  0.000000      1.000000
 


--------------------------------------------------------------------------------------------------------




 Dimension of arrays:
   k-points           NKPTS =      1   k-points in BZ     NKDIM =      1   number of bands    NBANDS=    384
   number of dos      NEDOS =    301   number of ions     NIONS =     71
   non local maximal  LDIM  =      8   non local SUM 2l+1 LMDIM =     32
   total plane-waves  NPLWV = ******
   max r-space proj   IRMAX =      1   max aug-charges    IRDMAX= 305922
   dimension x,y,z NGX =    90 NGY =   90 NGZ =  160
   dimension x,y,z NGXF=   180 NGYF=  180 NGZF=  320
   support grid    NGXF=   360 NGYF=  360 NGZF=  640
   ions per type =              18  51   2
   NGX,Y,Z   is equivalent  to a cutoff of  12.90, 12.90, 12.64 a.u.
   NGXF,Y,Z  is equivalent  to a cutoff of  25.80, 25.80, 25.27 a.u.

 SYSTEM =  unknown system                          
 POSCAR =  CeO2_111_33_vO-Ir-0                     

 Startparameter for this run:
   NWRITE =      2    write-flag & timer
   PREC   = accura    normal or accurate (medium, high low for compatibility)
   ISTART =      0    job   : 0-new  1-cont  2-samecut
   ICHARG =      2    charge: 1-file 2-atom 10-const
   ISPIN  =      2    spin polarized calculation?
   LNONCOLLINEAR =      F non collinear calculations
   LSORBIT =      F    spin-orbit coupling
   INIWAV =      1    electr: 0-lowe 1-rand  2-diag
   LASPH  =      T    aspherical Exc in radial PAW
 Electronic Relaxation 1
   ENCUT  =  520.0 eV  38.22 Ry    6.18 a.u.  21.56 21.56 39.14*2*pi/ulx,y,z
   ENINI  =  520.0     initial cutoff
   ENAUG  =  605.4 eV  augmentation charge cutoff
   NELM   =     90;   NELMIN=  6; NELMDL=  0     # of ELM steps 
   EDIFF  = 0.1E-05   stopping-criterion for ELM
   LREAL  =      F    real-space projection
   NLSPLINE    = F    spline interpolate recip. space projectors
   LCOMPAT=      F    compatible to vasp.4.4
   GGA_COMPAT  = T    GGA compatible to vasp.4.4-vasp.4.6
   LMAXPAW     = -100 max onsite density
   LMAXMIX     =    6 max onsite mixed and CHGCAR
   VOSKOWN=      0    Vosko Wilk Nusair interpolation
   ROPT   =    0.00000   0.00000   0.00000
 Ionic relaxation
   EDIFFG = -.2E-01   stopping-criterion for IOM
   NSW    =    300    number of steps for IOM
   NBLOCK =      1;   KBLOCK =    300    inner block; outer block 
   IBRION =      2    ionic relax: 0-MD 1-quasi-New 2-CG
   NFREE  =      1    steps in history (QN), initial steepest desc. (CG)
   ISIF   =      2    stress and relaxation
   IWAVPR =     11    prediction:  0-non 1-charg 2-wave 3-comb
   ISYM   =      2    0-nonsym 1-usesym 2-fastsym
   LCORR  =      T    Harris-Foulkes like correction to forces

   POTIM  = 0.5000    time-step for ionic-motion
   TEIN   =    0.0    initial temperature
   TEBEG  =    0.0;   TEEND  =   0.0 temperature during run
   SMASS  =  -3.00    Nose mass-parameter (am)
   estimated Nose-frequenzy (Omega)   =  0.10E-29 period in steps = 0.13E+47 mass=  -0.307E-26a.u.
   SCALEE = 1.0000    scale energy and forces
   NPACO  =    256;   APACO  = 10.0  distance and # of slots for P.C.
   PSTRESS=    0.0 pullay stress

  Mass of Ions in am
   POMASS = 140.12 16.00192.22
  Ionic Valenz
   ZVAL   =  12.00  6.00  9.00
  Atomic Wigner-Seitz radii
   RWIGS  =  -1.00 -1.00 -1.00
  virtual crystal weights 
   VCA    =   1.00  1.00  1.00
   NELECT =     540.0000    total number of electrons
   NUPDOWN=      -1.0000    fix difference up-down

 DOS related values:
   EMIN   =  10.00;   EMAX   =-10.00  energy-range for DOS
   EFERMI =   0.00;   METHOD = LEGACY      
   ISMEAR =     0;   SIGMA  =   0.05  broadening in eV -4-tet -1-fermi 0-gaus

 Electronic relaxation 2 (details)
   IALGO  =     38    algorithm
   LDIAG  =      T    sub-space diagonalisation (order eigenvalues)
   LSUBROT=      F    optimize rotation matrix (better conditioning)
   TURBO    =      0    0=normal 1=particle mesh
   IRESTART =      0    0=no restart 2=restart with 2 vectors
   NREBOOT  =      0    no. of reboots
   NMIN     =      0    reboot dimension
   EREF     =   0.00    reference energy to select bands
   IMIX   =      4    mixing-type and parameters
     AMIX     =   0.40;   BMIX     =  1.00
     AMIX_MAG =   1.60;   BMIX_MAG =  1.00
     AMIN     =   0.10
     WC   =   100.;   INIMIX=   1;  MIXPRE=   1;  MAXMIX= -45

 Intra band minimization:
   WEIMIN = 0.0010     energy-eigenvalue tresh-hold
   EBREAK =  0.65E-09  absolut break condition
   DEPER  =   0.30     relativ break condition  

   TIME   =   0.40     timestep for ELM

  volume/ion in A,a.u.               =      34.54       233.06
  Fermi-wavevector in a.u.,A,eV,Ry     =   0.988623  1.868226 13.297987  0.977374
  Thomas-Fermi vector in A             =   2.120162
 
 Write flags
   LWAVE        =      F    write WAVECAR
   LDOWNSAMPLE  =      F    k-point downsampling of WAVECAR
   LCHARG       =      F    write CHGCAR
   LVTOT        =      F    write LOCPOT, total local potential
   LVHAR        =      F    write LOCPOT, Hartree potential only
   WRT_POTENTIAL= false  ! write potential to hdf5 file
   LELF         =      F    write electronic localiz. function (ELF)
   LORBIT       =      0    0 simple, 1 ext, 2 COOP (PROOUT), +10 PAW based schemes


 Dipole corrections
   LMONO      =      F    monopole corrections only (constant potential shift)
   LDIPOL     =      F    correct potential (dipole corrections)
   IDIPOL     =      0    1-x, 2-y, 3-z, 4-all directions 
   EPSILON    =  1.0000000 bulk dielectric constant
   LVACPOTAV  =      F  vacuum potentials using an averaging scheme for the charge density
   VACPOTFLAT =  0.1000000 required flatness to determine vacuum potential
 LDA+U is selected, type is set to LDAUTYPE =  2
   angular momentum for each species LDAUL =     3   -1    2
   U (eV)           for each species LDAUU =   5.0  0.0  2.0
   J (eV)           for each species LDAUJ =   0.0  0.0  0.0
 Exchange correlation treatment:
   GGA     = PE    functional components
   XC_C    = 1    coefficients multiplying the functional components
   LIBXC   =     F    Libxc                    
   VOSKOWN =     0    Vosko Wilk Nusair interpolation
   LHFCALC =     F    Hartree Fock is set to
   LHFONE  =     F    Hartree Fock one center treatment
   AEXX    =    0.0000 exact exchange contribution

 Parameters of functionals:
   PE:
     No parameter
 
 Van der Waals corrections
   IVDW    =     0    specifies the selected vdW correction

 Linear response parameters
   LEPSILON=     F    determine dielectric tensor
   LRPA    =     F    only Hartree local field effects (RPA)
   LNABLA  =     F    use nabla operator in PAW spheres
   LVEL    =     F    velocity operator in full k-point grid
   CSHIFT  =0.1000    complex shift for real part using Kramers Kronig
   OMEGAMAX=  -1.0    maximum frequency
   DEG_THRESHOLD= 0.2000000E-02 threshold for treating states as degnerate
   RTIME   =   -0.100 relaxation time in fs
  (WPLASMAI=    0.000 imaginary part of plasma frequency in eV, 0.658/RTIME)
   DFIELD  = 0.0000000 0.0000000 0.0000000 field for delta impulse in time
 
  Optional k-point grid parameters
   LKPOINTS_OPT  =     F    use optional k-point grid
   KPOINTS_OPT_MODE=     1    mode for optional k-point grid
 
 Orbital magnetization related:
   ORBITALMAG=     F  switch on orbital magnetization
   LCHIMAG   =     F  perturbation theory with respect to B field
   DQ        =  0.001000  dq finite difference perturbation B field
   LLRAUG    =     F  two centre corrections for induced B field
   LBONE     =     F  B-component reconstruction in AE one-centre
   LVGVCALC  =     T  calculate vGv susceptibility
   LVGVAPPL  =     F  apply vGv susceptibility instead of pGv for G=0

 Random number generation:
   RANDOM_GENERATOR = DEFAULT
   PCG_SEED         = not used


--------------------------------------------------------------------------------------------------------


 conjugate gradient relaxation of ions
 charge density and potential will be updated during run
 spin polarized calculation
 Variant of blocked Davidson
 Davidson routine will perform the subspace rotation
 perform sub-space diagonalisation
    after iterative eigenvector-optimisation
 modified Broyden-mixing scheme, WC =      100.0
 initial mixing is a Kerker type mixing with AMIX =  0.4000 and BMIX =      1.0000
 Hartree-type preconditioning will be used
 using additional bands          114
 reciprocal scheme for non local part
 use partial core corrections
 calculate Harris-corrections to forces 
   (improved forces if not selfconsistent)
 use gradient corrections 
 use of overlap-Matrix (Vanderbilt PP)
 Gauss-broadening in eV      SIGMA  =   0.05


--------------------------------------------------------------------------------------------------------


  energy-cutoff  :      520.00
  volume of cell :     2452.04
      direct lattice vectors                 reciprocal lattice vectors
    11.598199844  0.000000000  0.000000000     0.086220277  0.049779300  0.000000000
    -5.799099922 10.044335703  0.000000000     0.000000000  0.099558600  0.000000000
     0.000000000  0.000000000 21.048200607     0.000000000  0.000000000  0.047509999

  length of vectors
    11.598199844 11.598199844 21.048200607     0.099558600  0.099558600  0.047509999


 
 k-points in units of 2pi/SCALE and weight: K-Spacing Value to Generate K-Mesh: 0.03
   0.00000000  0.00000000  0.00000000       1.000
 
 k-points in reciprocal lattice and weights: K-Spacing Value to Generate K-Mesh: 0.03
   0.00000000  0.00000000  0.00000000       1.000
 
 position of ions in fractional coordinates (direct lattice) 
   0.00000000  0.00000000  0.45993000
   0.22222000  0.11111000  0.30996000
   0.33333000  0.00000000  0.45993000
   0.55556000  0.11111000  0.30996000
   0.66667000  0.00000000  0.45993000
   0.88889000  0.11111000  0.30996000
   0.00000000  0.33333000  0.45993000
   0.22222000  0.44444000  0.30996000
   0.33333000  0.33333000  0.45993000
   0.55556000  0.44444000  0.30996000
   0.66667000  0.33333000  0.45993000
   0.88889000  0.44444000  0.30996000
   0.00000000  0.66667000  0.45993000
   0.22222000  0.77778000  0.30996000
   0.33333000  0.66667000  0.45993000
   0.55556000  0.77778000  0.30996000
   0.66667000  0.66667000  0.45993000
   0.88889000  0.77778000  0.30996000
   0.00000000  0.00000000  0.57241000
   0.11111000  0.22222000  0.27247000
   0.22222000  0.11111000  0.42244000
   0.11111000  0.22222000  0.49742000
   0.00000000  0.00000000  0.34745000
   0.33333000  0.00000000  0.57241000
   0.44444000  0.22222000  0.27247000
   0.55556000  0.11111000  0.42244000
   0.44444000  0.22222000  0.49742000
   0.33333000  0.00000000  0.34745000
   0.66667000  0.00000000  0.57241000
   0.77778000  0.22222000  0.27247000
   0.88889000  0.11111000  0.42244000
   0.77778000  0.22222000  0.49742000
   0.66667000  0.00000000  0.34745000
   0.00000000  0.33333000  0.57241000
   0.11111000  0.55556000  0.27247000
   0.22222000  0.44444000  0.42244000
   0.11111000  0.55556000  0.49742000
   0.00000000  0.33333000  0.34745000
   0.33333000  0.33333000  0.57241000
   0.44444000  0.55556000  0.27247000
   0.55556000  0.44444000  0.42244000
   0.44444000  0.55556000  0.49742000
   0.33333000  0.33333000  0.34745000
   0.66667000  0.33333000  0.57241000
   0.77778000  0.55556000  0.27247000
   0.88889000  0.44444000  0.42244000
   0.77778000  0.55556000  0.49742000
   0.66667000  0.33333000  0.34745000
   0.00000000  0.66667000  0.57241000
   0.11111000  0.88889000  0.27247000
   0.22222000  0.77778000  0.42244000
   0.11111000  0.88889000  0.49742000
   0.00000000  0.66667000  0.34745000
   0.33333000  0.66667000  0.57241000
   0.44444000  0.88889000  0.27247000
   0.55556000  0.77778000  0.42244000
   0.44444000  0.88889000  0.49742000
   0.33333000  0.66667000  0.34745000
   0.66667000  0.66667000  0.57241000
   0.77778000  0.88889000  0.27247000
   0.88889000  0.77778000  0.42244000
   0.77778000  0.88889000  0.49742000
   0.66667000  0.66667000  0.34745000
   0.41995000  0.90566000  0.63222000
   0.56244000  0.76382000  0.64172000
   0.55931000  0.77277000  0.51616000
   0.42431000  0.57633000  0.63422000
   0.55313000  0.44676000  0.64709000
   0.56544000  0.43664000  0.51651000
   0.49197000  0.83062000  0.57349000
   0.49190000  0.50494000  0.57828000
 
 position of ions in cartesian coordinates  (Angst):
   0.00000000  0.00000000  9.68069891
   1.93301398  1.11602614  6.52410026
   3.86602795  0.00000000  9.68069891
   5.79915791  1.11602614  6.52410026
   7.73217189  0.00000000  9.68069891
   9.66518587  1.11602614  6.52410026
  -1.93301398  3.34807842  9.68069891
  -0.00000000  4.46410456  6.52410026
   1.93301398  3.34807842  9.68069891
   3.86614394  4.46410456  6.52410026
   5.79915791  3.34807842  9.68069891
   7.73217189  4.46410456  6.52410026
  -3.86608595  6.69625728  9.68069891
  -1.93307197  7.81228342  6.52410026
  -0.00005799  6.69625728  9.68069891
   1.93307197  7.81228342  6.52410026
   3.86608595  6.69625728  9.68069891
   5.79909992  7.81228342  6.52410026
   0.00000000  0.00000000 12.04820051
  -0.00000000  2.23205228  5.73500322
   1.93301398  1.11602614  8.89160186
  -0.00000000  2.23205228 10.46979595
   0.00000000  0.00000000  7.31319730
   3.86602795  0.00000000 12.04820051
   3.86602795  2.23205228  5.73500322
   5.79915791  1.11602614  8.89160186
   3.86602795  2.23205228 10.46979595
   3.86602795  0.00000000  7.31319730
   7.73217189  0.00000000 12.04820051
   7.73217189  2.23205228  5.73500322
   9.66518587  1.11602614  8.89160186
   7.73217189  2.23205228 10.46979595
   7.73217189  0.00000000  7.31319730
  -1.93301398  3.34807842 12.04820051
  -1.93307197  5.58023114  5.73500322
  -0.00000000  4.46410456  8.89160186
  -1.93307197  5.58023114 10.46979595
  -1.93301398  3.34807842  7.31319730
   1.93301398  3.34807842 12.04820051
   1.93295599  5.58023114  5.73500322
   3.86614394  4.46410456  8.89160186
   1.93295599  5.58023114 10.46979595
   1.93301398  3.34807842  7.31319730
   5.79915791  3.34807842 12.04820051
   5.79909992  5.58023114  5.73500322
   7.73217189  4.46410456  8.89160186
   5.79909992  5.58023114 10.46979595
   5.79915791  3.34807842  7.31319730
  -3.86608595  6.69625728 12.04820051
  -3.86608595  8.92830956  5.73500322
  -1.93307197  7.81228342  8.89160186
  -3.86608595  8.92830956 10.46979595
  -3.86608595  6.69625728  7.31319730
  -0.00005799  6.69625728 12.04820051
  -0.00005799  8.92830956  5.73500322
   1.93307197  7.81228342  8.89160186
  -0.00005799  8.92830956 10.46979595
  -0.00005799  6.69625728  7.31319730
   3.86608595  6.69625728 12.04820051
   3.86608595  8.92830956  5.73500322
   5.79909992  7.81228342  8.89160186
   3.86608595  8.92830956 10.46979595
   3.86608595  6.69625728  7.31319730
  -0.38134881  9.09675307 13.30709339
   2.09382302  7.67206450 13.50705129
   2.00561871  7.76196130 10.86423923
   1.57903692  5.78885200 13.34918979
   3.82450640  4.48740742 13.62008013
   4.02596713  4.38575874 10.87160610
   0.88911800  8.34302612 12.07093257
   2.77695699  5.07178687 12.17175345
 


--------------------------------------------------------------------------------------------------------


 use parallel FFT for orbitals z direction half grid
 k-point     1 :   0.0000 0.0000 0.0000  plane waves:   33034

 maximum and minimum number of plane-waves per node :      8261     8256

 maximum number of plane-waves:     33034
 maximum index in each direction: 
   IXMAX=   21   IYMAX=   21   IZMAX=   39
   IXMIN=  -21   IYMIN=  -21   IZMIN=    0


 parallel 3D FFT for wavefunctions:
    minimum data exchange during FFTs selected (reduces bandwidth)
 parallel 3D FFT for charge:
    minimum data exchange during FFTs selected (reduces bandwidth)


 total amount of memory used by VASP MPI-rank0    95789. kBytes
=======================================================================

   base      :      30000. kBytes
   nonl-proj :      15810. kBytes
   fftplans  :      15277. kBytes
   grid      :      31656. kBytes
   one-center:        884. kBytes
   wavefun   :       2162. kBytes
 
     INWAV:  cpu time      0.0000: real time      0.0000
 Broyden mixing: mesh for mixing (old mesh)
   NGX = 43   NGY = 43   NGZ = 79
  (NGX  =180   NGY  =180   NGZ  =320)
  gives a total of 146071 points

 initial charge density was supplied:
 charge density of overlapping atoms calculated
 number of electron     540.0000000 magnetization      49.8000000
 keeping initial charge density in first step


--------------------------------------------------------------------------------------------------------


 Maximum index for augmentation-charges         4337 (set IRDMAX)


--------------------------------------------------------------------------------------------------------


 First call to EWALD:  gamma=   0.131
 Maximum number of real-space cells 4x 4x 2
 Maximum number of reciprocal cells 2x 2x 4

    FEWALD:  cpu time      0.0046: real time      0.0046


--------------------------------------- Ionic step        1  -------------------------------------------




--------------------------------------- Iteration      1(   1)  ---------------------------------------


    POTLOK:  cpu time      0.1459: real time      0.1513
    SETDIJ:  cpu time      0.9959: real time      0.9969
     EDDAV:  cpu time      1.6958: real time      1.7210
       DOS:  cpu time      0.0118: real time      0.0123
    --------------------------------------------
      LOOP:  cpu time      2.8494: real time      2.8814

 eigenvalue-minimisations  :  1536
 total energy-change (2. order) : 0.9563333E+04  (-0.2445586E+05)
 number of electron     540.0000000 magnetization      49.8000000
 augmentation part      540.0000000 magnetization      49.8000000

 Free energy of the ion-electron system (eV)
  ---------------------------------------------------
  alpha Z        PSCENC =      1011.17032867
  Ewald energy   TEWEN  =    123827.45758914
  -Hartree energ DENC   =   -161599.89990319
  -exchange      EXHF   =         0.00000000
  -V(xc)+E(xc)   XCENC  =      1466.58854679
  PAW double counting   =     34088.29200945   -33649.72740068
  entropy T*S    EENTRO =        -0.00545253
  eigenvalues    EBANDS =      2113.52558154
  atomic energy  EATOM  =     42305.93172720
  Solvation  Ediel_sol  =         0.00000000
  ---------------------------------------------------
  free energy    TOTEN  =      9563.33302639 eV

  energy without entropy =     9563.33847892  energy(sigma->0) =     9563.33575266


--------------------------------------------------------------------------------------------------------




--------------------------------------- Iteration      1(   2)  ---------------------------------------


     EDDAV:  cpu time      1.8699: real time      1.8712
       DOS:  cpu time      0.0007: real time      0.0007
    --------------------------------------------
      LOOP:  cpu time      1.8706: real time      1.8719

 eigenvalue-minimisations  :  1920
 total energy-change (2. order) :-0.6957248E+04  (-0.6073108E+04)
 number of electron     540.0000000 magnetization      49.8000000
 augmentation part      540.0000000 magnetization      49.8000000

 Free energy of the ion-electron system (eV)
  ---------------------------------------------------
  alpha Z        PSCENC =      1011.17032867
  Ewald energy   TEWEN  =    123827.45758914
  -Hartree energ DENC   =   -161599.89990319
  -exchange      EXHF   =         0.00000000
  -V(xc)+E(xc)   XCENC  =      1466.58854679
  PAW double counting   =     34088.29200945   -33649.72740068
  entropy T*S    EENTRO =        -0.12150014
  eigenvalues    EBANDS =     -4843.60641434
  atomic energy  EATOM  =     42305.93172720
  Solvation  Ediel_sol  =         0.00000000
  ---------------------------------------------------
  free energy    TOTEN  =      2606.08498290 eV

  energy without entropy =     2606.20648304  energy(sigma->0) =     2606.14573297


--------------------------------------------------------------------------------------------------------




--------------------------------------- Iteration      1(   3)  ---------------------------------------


     EDDAV:  cpu time      2.1705: real time      2.1717
       DOS:  cpu time      0.0005: real time      0.0005
    --------------------------------------------
      LOOP:  cpu time      2.1710: real time      2.1722

 eigenvalue-minimisations  :  2304
 total energy-change (2. order) :-0.2882700E+04  (-0.2749069E+04)
 number of electron     540.0000000 magnetization      49.8000000
 augmentation part      540.0000000 magnetization      49.8000000

 Free energy of the ion-electron system (eV)
  ---------------------------------------------------
  alpha Z        PSCENC =      1011.17032867
  Ewald energy   TEWEN  =    123827.45758914
  -Hartree energ DENC   =   -161599.89990319
  -exchange      EXHF   =         0.00000000
  -V(xc)+E(xc)   XCENC  =      1466.58854679
  PAW double counting   =     34088.29200945   -33649.72740068
  entropy T*S    EENTRO =        -0.00016398
  eigenvalues    EBANDS =     -7726.42810749
  atomic energy  EATOM  =     42305.93172720
  Solvation  Ediel_sol  =         0.00000000
  ---------------------------------------------------
  free energy    TOTEN  =      -276.61537409 eV

  energy without entropy =     -276.61521011  energy(sigma->0) =     -276.61529210


--------------------------------------------------------------------------------------------------------




--------------------------------------- Iteration      1(   4)  ---------------------------------------


     EDDAV:  cpu time      2.0829: real time      2.0838
       DOS:  cpu time      0.0006: real time      0.0006
    --------------------------------------------
      LOOP:  cpu time      2.0834: real time      2.0843

 eigenvalue-minimisations  :  2208
 total energy-change (2. order) :-0.3553722E+03  (-0.3504209E+03)
 number of electron     540.0000000 magnetization      49.8000000
 augmentation part      540.0000000 magnetization      49.8000000

 Free energy of the ion-electron system (eV)
  ---------------------------------------------------
  alpha Z        PSCENC =      1011.17032867
  Ewald energy   TEWEN  =    123827.45758914
  -Hartree energ DENC   =   -161599.89990319
  -exchange      EXHF   =         0.00000000
  -V(xc)+E(xc)   XCENC  =      1466.58854679
  PAW double counting   =     34088.29200945   -33649.72740068
  entropy T*S    EENTRO =        -0.04132565
  eigenvalues    EBANDS =     -8081.75917881
  atomic energy  EATOM  =     42305.93172720
  Solvation  Ediel_sol  =         0.00000000
  ---------------------------------------------------
  free energy    TOTEN  =      -631.98760708 eV

  energy without entropy =     -631.94628143  energy(sigma->0) =     -631.96694426


--------------------------------------------------------------------------------------------------------




--------------------------------------- Iteration      1(   5)  ---------------------------------------


     EDDAV:  cpu time      2.3776: real time      2.3796
       DOS:  cpu time      0.0007: real time      0.0007
    CHARGE:  cpu time      0.6641: real time      0.6688
    MIXING:  cpu time      0.0180: real time      0.0189
    --------------------------------------------
      LOOP:  cpu time      3.0604: real time      3.0680

 eigenvalue-minimisations  :  2592
 total energy-change (2. order) :-0.1631344E+02  (-0.1625424E+02)
 number of electron     539.9999996 magnetization      44.0747674
 augmentation part        8.2532066 magnetization      40.1217017

 Broyden mixing:
  rms(total) = 0.13806E+02    rms(broyden)= 0.13805E+02
  rms(prec ) = 0.14368E+02
  weight for this iteration     100.00

 Free energy of the ion-electron system (eV)
  ---------------------------------------------------
  alpha Z        PSCENC =      1011.17032867
  Ewald energy   TEWEN  =    123827.45758914
  -Hartree energ DENC   =   -161599.89990319
  -exchange      EXHF   =         0.00000000
  -V(xc)+E(xc)   XCENC  =      1466.58854679
  PAW double counting   =     34088.29200945   -33649.72740068
  entropy T*S    EENTRO =        -0.06307062
  eigenvalues    EBANDS =     -8098.05086919
  atomic energy  EATOM  =     42305.93172720
  Solvation  Ediel_sol  =         0.00000000
  ---------------------------------------------------
  free energy    TOTEN  =      -648.30104244 eV

  energy without entropy =     -648.23797182  energy(sigma->0) =     -648.26950713


--------------------------------------------------------------------------------------------------------




--------------------------------------- Iteration      1(   6)  ---------------------------------------


    POTLOK:  cpu time      0.0755: real time      0.0755
    SETDIJ:  cpu time      0.9857: real time      0.9860
     EDDAV:  cpu time      2.1574: real time      2.1585
       DOS:  cpu time      0.0006: real time      0.0006
    CHARGE:  cpu time      0.6277: real time      0.6285
    MIXING:  cpu time      0.0093: real time      0.0094
    --------------------------------------------
      LOOP:  cpu time      3.8562: real time      3.8585

 eigenvalue-minimisations  :  2304
 total energy-change (2. order) : 0.7174060E+02  (-0.2828551E+03)
 number of electron     540.0000000 magnetization      42.9648188
 augmentation part       32.2035148 magnetization      35.5684511

 Broyden mixing:
  rms(total) = 0.20877E+02    rms(broyden)= 0.20875E+02
  rms(prec ) = 0.21798E+02
  weight for this iteration     100.00

 eigenvalues of (default mixing * dielectric matrix)
  average eigenvalue GAMMA=   0.2551
  0.2551

 Free energy of the ion-electron system (eV)
  ---------------------------------------------------
  alpha Z        PSCENC =      1011.17032867
  Ewald energy   TEWEN  =    123827.45758914
  -Hartree energ DENC   =   -162387.13079777
  -exchange      EXHF   =         0.00000000
  -V(xc)+E(xc)   XCENC  =      1540.27428555
  PAW double counting   =     36795.51540793   -36356.57247628
  entropy T*S    EENTRO =        -0.15398937
  eigenvalues    EBANDS =     -7313.05251521
  atomic energy  EATOM  =     42305.93172720
  Solvation  Ediel_sol  =         0.00000000
  ---------------------------------------------------
  free energy    TOTEN  =      -576.56044015 eV

  energy without entropy =     -576.40645078  energy(sigma->0) =     -576.48344546


--------------------------------------------------------------------------------------------------------




--------------------------------------- Iteration      1(   7)  ---------------------------------------


    POTLOK:  cpu time      0.0763: real time      0.0763
    SETDIJ:  cpu time      1.0023: real time      1.0028
     EDDAV:  cpu time      2.2593: real time      2.2602
       DOS:  cpu time      0.0006: real time      0.0006
    CHARGE:  cpu time      0.6122: real time      0.6132
    MIXING:  cpu time      0.0026: real time      0.0026
    --------------------------------------------
      LOOP:  cpu time      3.9534: real time      3.9557

 eigenvalue-minimisations  :  2448
 total energy-change (2. order) : 0.9296097E+02  (-0.8980966E+02)
 number of electron     539.9999997 magnetization      39.6328495
 augmentation part        6.4458821 magnetization      28.3321261

 Broyden mixing:
  rms(total) = 0.88441E+01    rms(broyden)= 0.88433E+01
  rms(prec ) = 0.91721E+01
  weight for this iteration     100.00

 eigenvalues of (default mixing * dielectric matrix)
  average eigenvalue GAMMA=   0.5724
  0.8090  0.3359

 Free energy of the ion-electron system (eV)
  ---------------------------------------------------
  alpha Z        PSCENC =      1011.17032867
  Ewald energy   TEWEN  =    123827.45758914
  -Hartree energ DENC   =   -162425.39566465
  -exchange      EXHF   =         0.00000000
  -V(xc)+E(xc)   XCENC  =      1528.05346228
  PAW double counting   =     37626.52281893   -37204.16871594
  entropy T*S    EENTRO =        -0.07350929
  eigenvalues    EBANDS =     -7153.09750260
  atomic energy  EATOM  =     42305.93172720
  Solvation  Ediel_sol  =         0.00000000
  ---------------------------------------------------
  free energy    TOTEN  =      -483.59946626 eV

  energy without entropy =     -483.52595697  energy(sigma->0) =     -483.56271162


--------------------------------------------------------------------------------------------------------




--------------------------------------- Iteration      1(   8)  ---------------------------------------


    POTLOK:  cpu time      0.0750: real time      0.0750
    SETDIJ:  cpu time      0.9840: real time      0.9842
     EDDAV:  cpu time      2.4597: real time      2.4607
       DOS:  cpu time      0.0007: real time      0.0007
    CHARGE:  cpu time      0.5846: real time      0.5856
    MIXING:  cpu time      0.0026: real time      0.0026
    --------------------------------------------
      LOOP:  cpu time      4.1067: real time      4.1087

 eigenvalue-minimisations  :  2688
 total energy-change (2. order) :-0.7581734E+02  (-0.8539965E+02)
 number of electron     540.0000000 magnetization      38.6400666
 augmentation part       38.6722917 magnetization      27.8121067

 Broyden mixing:
  rms(total) = 0.15940E+02    rms(broyden)= 0.15939E+02
  rms(prec ) = 0.19756E+02
  weight for this iteration     100.00

 eigenvalues of (default mixing * dielectric matrix)
  average eigenvalue GAMMA=   0.4851
  0.8372  0.3716  0.2464

 Free energy of the ion-electron system (eV)
  ---------------------------------------------------
  alpha Z        PSCENC =      1011.17032867
  Ewald energy   TEWEN  =    123827.45758914
  -Hartree energ DENC   =   -162155.13973874
  -exchange      EXHF   =         0.00000000
  -V(xc)+E(xc)   XCENC  =      1525.03398466
  PAW double counting   =     38947.20797193   -38496.88104820
  entropy T*S    EENTRO =        -0.25193698
  eigenvalues    EBANDS =     -7523.94568372
  atomic energy  EATOM  =     42305.93172720
  Solvation  Ediel_sol  =         0.00000000
  ---------------------------------------------------
  free energy    TOTEN  =      -559.41680605 eV

  energy without entropy =     -559.16486907  energy(sigma->0) =     -559.29083756


--------------------------------------------------------------------------------------------------------




--------------------------------------- Iteration      1(   9)  ---------------------------------------


    POTLOK:  cpu time      0.0738: real time      0.0738
    SETDIJ:  cpu time      0.9713: real time      0.9714
     EDDAV:  cpu time      2.3554: real time      2.3565
       DOS:  cpu time      0.0006: real time      0.0006
    CHARGE:  cpu time      0.5898: real time      0.5909
    MIXING:  cpu time      0.0044: real time      0.0044
    --------------------------------------------
      LOOP:  cpu time      3.9952: real time      3.9975

 eigenvalue-minimisations  :  2544
 total energy-change (2. order) : 0.5100845E+02  (-0.3140656E+03)
 number of electron     539.9999998 magnetization      37.5617774
 augmentation part       16.3602103 magnetization      28.6614102

 Broyden mixing:
  rms(total) = 0.12817E+02    rms(broyden)= 0.12816E+02
  rms(prec ) = 0.14849E+02
  weight for this iteration     100.00

 eigenvalues of (default mixing * dielectric matrix)
  average eigenvalue GAMMA=   0.4392
  0.9517  0.3646  0.2974  0.1432

 Free energy of the ion-electron system (eV)
  ---------------------------------------------------
  alpha Z        PSCENC =      1011.17032867
  Ewald energy   TEWEN  =    123827.45758914
  -Hartree energ DENC   =   -162321.19902070
  -exchange      EXHF   =         0.00000000
  -V(xc)+E(xc)   XCENC  =      1517.14811254
  PAW double counting   =     39328.82347065   -38899.97609283
  entropy T*S    EENTRO =        -0.06278765
  eigenvalues    EBANDS =     -7277.70168429
  atomic energy  EATOM  =     42305.93172720
  Solvation  Ediel_sol  =         0.00000000
  ---------------------------------------------------
  free energy    TOTEN  =      -508.40835727 eV

  energy without entropy =     -508.34556962  energy(sigma->0) =     -508.37696345


--------------------------------------------------------------------------------------------------------




--------------------------------------- Iteration      1(  10)  ---------------------------------------


    POTLOK:  cpu time      0.0739: real time      0.0739
    SETDIJ:  cpu time      0.9829: real time      0.9834
     EDDAV:  cpu time      2.2731: real time      2.2743
       DOS:  cpu time      0.0006: real time      0.0006
    CHARGE:  cpu time      0.6032: real time      0.6042
    MIXING:  cpu time      0.0047: real time      0.0047
    --------------------------------------------
      LOOP:  cpu time      3.9384: real time      3.9411

 eigenvalue-minimisations  :  2448
 total energy-change (2. order) : 0.1995964E+01  (-0.1670861E+03)
 number of electron     539.9999997 magnetization      34.6617802
 augmentation part        5.4893635 magnetization      25.3617936

 Broyden mixing:
  rms(total) = 0.46803E+01    rms(broyden)= 0.46779E+01
  rms(prec ) = 0.49689E+01
  weight for this iteration     100.00

 eigenvalues of (default mixing * dielectric matrix)
  average eigenvalue GAMMA=   0.5204
  1.3806  0.4357  0.4357  0.1750  0.1750

 Free energy of the ion-electron system (eV)
  ---------------------------------------------------
  alpha Z        PSCENC =      1011.17032867
  Ewald energy   TEWEN  =    123827.45758914
  -Hartree energ DENC   =   -162431.68901333
  -exchange      EXHF   =         0.00000000
  -V(xc)+E(xc)   XCENC  =      1513.59003828
  PAW double counting   =     39649.04056650   -39224.75691569
  entropy T*S    EENTRO =        -0.02606528
  eigenvalues    EBANDS =     -7157.13064829
  atomic energy  EATOM  =     42305.93172720
  Solvation  Ediel_sol  =         0.00000000
  ---------------------------------------------------
  free energy    TOTEN  =      -506.41239280 eV

  energy without entropy =     -506.38632752  energy(sigma->0) =     -506.39936016


--------------------------------------------------------------------------------------------------------




--------------------------------------- Iteration      1(  11)  ---------------------------------------


    POTLOK:  cpu time      0.0743: real time      0.0743
    SETDIJ:  cpu time      0.9865: real time      0.9867
     EDDAV:  cpu time      2.3306: real time      2.3320
       DOS:  cpu time      0.0006: real time      0.0006
    CHARGE:  cpu time      0.6041: real time      0.6049
    MIXING:  cpu time      0.0027: real time      0.0027
    --------------------------------------------
      LOOP:  cpu time      3.9988: real time      4.0012

 eigenvalue-minimisations  :  2544
 total energy-change (2. order) :-0.2738303E+01  (-0.2952292E+02)
 number of electron     539.9999997 magnetization      33.2190384
 augmentation part        4.8890410 magnetization      28.1621871

 Broyden mixing:
  rms(total) = 0.52205E+01    rms(broyden)= 0.52188E+01
  rms(prec ) = 0.56751E+01
  weight for this iteration     100.00

 eigenvalues of (default mixing * dielectric matrix)
  average eigenvalue GAMMA=   0.5094
  1.4871  0.4719  0.4719  0.2600  0.1827  0.1827

 Free energy of the ion-electron system (eV)
  ---------------------------------------------------
  alpha Z        PSCENC =      1011.17032867
  Ewald energy   TEWEN  =    123827.45758914
  -Hartree energ DENC   =   -162569.78040688
  -exchange      EXHF   =         0.00000000
  -V(xc)+E(xc)   XCENC  =      1520.84881681
  PAW double counting   =     40323.51366699   -39896.33259489
  entropy T*S    EENTRO =        -0.01307026
  eigenvalues    EBANDS =     -7031.94675264
  atomic energy  EATOM  =     42305.93172720
  Solvation  Ediel_sol  =         0.00000000
  ---------------------------------------------------
  free energy    TOTEN  =      -509.15069587 eV

  energy without entropy =     -509.13762560  energy(sigma->0) =     -509.14416073


--------------------------------------------------------------------------------------------------------




--------------------------------------- Iteration      1(  12)  ---------------------------------------


    POTLOK:  cpu time      0.0764: real time      0.0764
    SETDIJ:  cpu time      0.9876: real time      0.9879
     EDDAV:  cpu time      2.0742: real time      2.0752
       DOS:  cpu time      0.0006: real time      0.0006
    CHARGE:  cpu time      0.5976: real time      0.5990
    MIXING:  cpu time      0.0029: real time      0.0029
    --------------------------------------------
      LOOP:  cpu time      3.7394: real time      3.7420

 eigenvalue-minimisations  :  2208
 total energy-change (2. order) : 0.1515314E+02  (-0.1636312E+02)
 number of electron     539.9999997 magnetization      32.1175258
 augmentation part        4.2359269 magnetization      23.2365793

 Broyden mixing:
  rms(total) = 0.40935E+01    rms(broyden)= 0.40921E+01
  rms(prec ) = 0.44295E+01
  weight for this iteration     100.00

 eigenvalues of (default mixing * dielectric matrix)
  average eigenvalue GAMMA=   0.4966
  1.5052  0.5287  0.5287  0.2785  0.2785  0.1783  0.1783

 Free energy of the ion-electron system (eV)
  ---------------------------------------------------
  alpha Z        PSCENC =      1011.17032867
  Ewald energy   TEWEN  =    123827.45758914
  -Hartree energ DENC   =   -162628.61881433
  -exchange      EXHF   =         0.00000000
  -V(xc)+E(xc)   XCENC  =      1524.10663053
  PAW double counting   =     40492.43518901   -40062.20298926
  entropy T*S    EENTRO =        -0.05680869
  eigenvalues    EBANDS =     -6964.22041154
  atomic energy  EATOM  =     42305.93172720
  Solvation  Ediel_sol  =         0.00000000
  ---------------------------------------------------
  free energy    TOTEN  =      -493.99755928 eV

  energy without entropy =     -493.94075059  energy(sigma->0) =     -493.96915493


--------------------------------------------------------------------------------------------------------




--------------------------------------- Iteration      1(  13)  ---------------------------------------


    POTLOK:  cpu time      0.0749: real time      0.0749
    SETDIJ:  cpu time      0.9828: real time      0.9832
     EDDAV:  cpu time      2.2316: real time      2.2325
       DOS:  cpu time      0.0007: real time      0.0007
    CHARGE:  cpu time      0.6099: real time      0.6106
    MIXING:  cpu time      0.0035: real time      0.0035
    --------------------------------------------
      LOOP:  cpu time      3.9034: real time      3.9054

 eigenvalue-minimisations  :  2400
 total energy-change (2. order) : 0.9143961E+01  (-0.3049789E+01)
 number of electron     539.9999997 magnetization      30.7633243
 augmentation part        3.7859114 magnetization      21.5551306

 Broyden mixing:
  rms(total) = 0.36824E+01    rms(broyden)= 0.36813E+01
  rms(prec ) = 0.39089E+01
  weight for this iteration     100.00

 eigenvalues of (default mixing * dielectric matrix)
  average eigenvalue GAMMA=   0.5037
  1.5101  0.6587  0.6587  0.3289  0.3289  0.1796  0.1796  0.1847

 Free energy of the ion-electron system (eV)
  ---------------------------------------------------
  alpha Z        PSCENC =      1011.17032867
  Ewald energy   TEWEN  =    123827.45758914
  -Hartree energ DENC   =   -162678.44821805
  -exchange      EXHF   =         0.00000000
  -V(xc)+E(xc)   XCENC  =      1526.12019373
  PAW double counting   =     40570.18599041   -40138.15421228
  entropy T*S    EENTRO =        -0.05876050
  eigenvalues    EBANDS =     -6909.05823627
  atomic energy  EATOM  =     42305.93172720
  Solvation  Ediel_sol  =         0.00000000
  ---------------------------------------------------
  free energy    TOTEN  =      -484.85359794 eV

  energy without entropy =     -484.79483744  energy(sigma->0) =     -484.82421769


--------------------------------------------------------------------------------------------------------




--------------------------------------- Iteration      1(  14)  ---------------------------------------


    POTLOK:  cpu time      0.0733: real time      0.0734
    SETDIJ:  cpu time      0.9725: real time      0.9727
     EDDAV:  cpu time      2.1180: real time      2.1191
       DOS:  cpu time      0.0007: real time      0.0007
    CHARGE:  cpu time      0.5887: real time      0.5888
    MIXING:  cpu time      0.0035: real time      0.0035
    --------------------------------------------
      LOOP:  cpu time      3.7566: real time      3.7580

 eigenvalue-minimisations  :  2256
 total energy-change (2. order) : 0.3124750E+01  (-0.3571217E+01)
 number of electron     539.9999997 magnetization      28.6335439
 augmentation part        3.4826080 magnetization      19.8719913

 Broyden mixing:
  rms(total) = 0.33521E+01    rms(broyden)= 0.33511E+01
  rms(prec ) = 0.36030E+01
  weight for this iteration     100.00

 eigenvalues of (default mixing * dielectric matrix)
  average eigenvalue GAMMA=   0.5205
  1.6047  0.7745  0.7745  0.3982  0.3982  0.1782  0.1782  0.1892  0.1892

 Free energy of the ion-electron system (eV)
  ---------------------------------------------------
  alpha Z        PSCENC =      1011.17032867
  Ewald energy   TEWEN  =    123827.45758914
  -Hartree energ DENC   =   -162726.71609924
  -exchange      EXHF   =         0.00000000
  -V(xc)+E(xc)   XCENC  =      1527.36243031
  PAW double counting   =     40651.26041449   -40216.54527759
  entropy T*S    EENTRO =        -0.03470422
  eigenvalues    EBANDS =     -6861.61525697
  atomic energy  EATOM  =     42305.93172720
  Solvation  Ediel_sol  =         0.00000000
  ---------------------------------------------------
  free energy    TOTEN  =      -481.72884820 eV

  energy without entropy =     -481.69414398  energy(sigma->0) =     -481.71149609


--------------------------------------------------------------------------------------------------------




--------------------------------------- Iteration      1(  15)  ---------------------------------------


    POTLOK:  cpu time      0.0749: real time      0.0749
    SETDIJ:  cpu time      0.9720: real time      0.9734
     EDDAV:  cpu time      2.1411: real time      2.1418
       DOS:  cpu time      0.0006: real time      0.0006
    CHARGE:  cpu time      0.6091: real time      0.6097
    MIXING:  cpu time      0.0047: real time      0.0047
    --------------------------------------------
      LOOP:  cpu time      3.8025: real time      3.8052

 eigenvalue-minimisations  :  2304
 total energy-change (2. order) : 0.1015395E+01  (-0.5631848E+01)
 number of electron     539.9999997 magnetization      27.2816948
 augmentation part        3.3481562 magnetization      17.1528137

 Broyden mixing:
  rms(total) = 0.26096E+01    rms(broyden)= 0.26086E+01
  rms(prec ) = 0.27794E+01
  weight for this iteration     100.00

 eigenvalues of (default mixing * dielectric matrix)
[...]
      3.87796      6.73840      7.31900        -0.017994     -0.022141     -0.331310
     -0.46633      9.14823     13.33319        -1.946322      1.134190      1.371504
      1.94093      7.65799     13.55554        -0.799963      0.312659      0.181922
      2.22208      7.70873     10.96284        -0.101698      0.132799     -0.115336
      1.57755      5.84715     13.32836         0.251614     -0.095678      0.597880
      3.88801      4.44273     13.75784         1.905573     -1.128101      3.159366
      4.16278      4.25372     11.15782        -0.272659     -0.054506      0.751488
      0.75181      8.47539     12.36182         3.604166      0.608060     -0.810555
      2.92524      4.98130     12.51919        -2.884947      0.293835     -3.611555
 -----------------------------------------------------------------------------------
    total drift:                               -0.000155      0.000262      0.001263


--------------------------------------------------------------------------------------------------------



  FREE ENERGIE OF THE ION-ELECTRON SYSTEM (eV)
  ---------------------------------------------------
  free  energy   TOTEN  =      -502.26100625 eV

  energy  without entropy=     -502.26100467  energy(sigma->0) =     -502.26100546
 
 d Force = 0.3345357E-01[-0.876E+00, 0.943E+00]  d Energy = 0.8628660E-01-0.528E-01
 d Force = 0.7532594E+03[ 0.750E+03, 0.756E+03]  d Ewald  = 0.7534186E+03-0.159E+00


--------------------------------------------------------------------------------------------------------


    POTLOK:  cpu time      1.1220: real time      1.1222


--------------------------------------------------------------------------------------------------------


 Conjugate gradient step on ions:
 trial-energy change:   -0.086287  1 .order   -0.033454   -0.943202    0.876295
  (g-gl).g = 0.102E+01      g.g   = 0.113E+01  gl.gl    = 0.177E+01
 g(Force)  = 0.113E+01   g(Stress)= 0.000E+00 ortho     = 0.163E-03
 gamma     =   0.57267
 trial     =   0.83786
 opt step  =   0.47028  (harmonic =   0.43433) maximal distance =0.08040857
 next E    =  -502.448766   (d E  =  -0.27405)


--------------------------------------------------------------------------------------------------------


    WAVPRE:  cpu time      0.0159: real time      0.0562
    FEWALD:  cpu time      0.0009: real time      0.0009
    ORTHCH:  cpu time      0.1230: real time      0.1230
     LOOP+:  cpu time    240.1343: real time    247.5353


--------------------------------------- Ionic step        9  -------------------------------------------




--------------------------------------- Iteration      9(   1)  ---------------------------------------


    POTLOK:  cpu time      0.0766: real time      0.0795
    SETDIJ:  cpu time      0.9811: real time      0.9816
     EDDAV:  cpu time      1.5611: real time      1.5619
       DOS:  cpu time      0.0005: real time      0.0005
    CHARGE:  cpu time      0.5949: real time      0.5954
    MIXING:  cpu time      0.0027: real time      0.0027
    --------------------------------------------
      LOOP:  cpu time      3.2169: real time      3.2217

 eigenvalue-minimisations  :  1536
 total energy-change (2. order) :-0.7442006E-01  (-0.6646348E+01)
 number of electron     539.9999999 magnetization      12.0000000
 augmentation part        3.6571078 magnetization       2.6067298

 Broyden mixing:
  rms(total) = 0.46515E+00    rms(broyden)= 0.46497E+00
  rms(prec ) = 0.47256E+00
  weight for this iteration     100.00

 Free energy of the ion-electron system (eV)
  ---------------------------------------------------
  alpha Z        PSCENC =      1011.17032867
  Ewald energy   TEWEN  =    121757.55770468
  -Hartree energ DENC   =   -160945.28746708
  -exchange      EXHF   =         0.00000000
  -V(xc)+E(xc)   XCENC  =      1512.63331844
  PAW double counting   =     40837.20868292   -40364.78230239
  entropy T*S    EENTRO =        -0.00000096
  eigenvalues    EBANDS =     -6616.76741707
  atomic energy  EATOM  =     42305.93172720
  Solvation  Ediel_sol  =         0.00000000
  ---------------------------------------------------
  free energy    TOTEN  =      -502.33542559 eV

  energy without entropy =     -502.33542464  energy(sigma->0) =     -502.33542511


--------------------------------------------------------------------------------------------------------




--------------------------------------- Iteration      9(   2)  ---------------------------------------


    POTLOK:  cpu time      0.0748: real time      0.0759
    SETDIJ:  cpu time      0.9721: real time      0.9726
     EDDAV:  cpu time      2.0811: real time      2.0819
       DOS:  cpu time      0.0006: real time      0.0006
    CHARGE:  cpu time      0.6000: real time      0.6001
    MIXING:  cpu time      0.0037: real time      0.0037
    --------------------------------------------
      LOOP:  cpu time      3.7324: real time      3.7348

 eigenvalue-minimisations  :  2208
 total energy-change (2. order) :-0.1813728E+00  (-0.2257577E+00)
 number of electron     539.9999999 magnetization      12.0000000
 augmentation part        3.6480981 magnetization       2.6122433

 Broyden mixing:
  rms(total) = 0.43482E+00    rms(broyden)= 0.43473E+00
  rms(prec ) = 0.45129E+00
  weight for this iteration     100.00

 eigenvalues of (default mixing * dielectric matrix)
  average eigenvalue GAMMA=   0.5663
  0.5663

 Free energy of the ion-electron system (eV)
  ---------------------------------------------------
  alpha Z        PSCENC =      1011.17032867
  Ewald energy   TEWEN  =    121757.55770468
  -Hartree energ DENC   =   -160933.70230579
  -exchange      EXHF   =         0.00000000
  -V(xc)+E(xc)   XCENC  =      1512.53166193
  PAW double counting   =     40817.61983665   -40345.21388743
  entropy T*S    EENTRO =        -0.00000369
  eigenvalues    EBANDS =     -6628.41186065
  atomic energy  EATOM  =     42305.93172720
  Solvation  Ediel_sol  =         0.00000000
  ---------------------------------------------------
  free energy    TOTEN  =      -502.51679843 eV

  energy without entropy =     -502.51679474  energy(sigma->0) =     -502.51679659


--------------------------------------------------------------------------------------------------------




--------------------------------------- Iteration      9(   3)  ---------------------------------------


    POTLOK:  cpu time      0.0763: real time      0.0871
    SETDIJ:  cpu time      0.9771: real time      0.9777
     EDDAV:  cpu time      2.6140: real time      2.6150
       DOS:  cpu time      0.0006: real time      0.0006
    CHARGE:  cpu time      0.5990: real time      0.5996
    MIXING:  cpu time      0.0021: real time      0.0021
    --------------------------------------------
      LOOP:  cpu time      4.2691: real time      4.2821

 eigenvalue-minimisations  :  2880
 total energy-change (2. order) : 0.3843737E-01  (-0.6987747E-01)
 number of electron     539.9999999 magnetization      12.0000000
 augmentation part        3.6909759 magnetization       2.6047148

 Broyden mixing:
  rms(total) = 0.25308E+00    rms(broyden)= 0.25295E+00
  rms(prec ) = 0.26465E+00
  weight for this iteration     100.00

 eigenvalues of (default mixing * dielectric matrix)
  average eigenvalue GAMMA=   0.8578
  1.3400  0.3755

 Free energy of the ion-electron system (eV)
  ---------------------------------------------------
  alpha Z        PSCENC =      1011.17032867
  Ewald energy   TEWEN  =    121757.55770468
  -Hartree energ DENC   =   -160938.60083379
  -exchange      EXHF   =         0.00000000
  -V(xc)+E(xc)   XCENC  =      1512.60436934
  PAW double counting   =     40804.18240637   -40331.78677376
  entropy T*S    EENTRO =        -0.00000100
  eigenvalues    EBANDS =     -6623.53728877
  atomic energy  EATOM  =     42305.93172720
  Solvation  Ediel_sol  =         0.00000000
  ---------------------------------------------------
  free energy    TOTEN  =      -502.47836107 eV

  energy without entropy =     -502.47836006  energy(sigma->0) =     -502.47836057


--------------------------------------------------------------------------------------------------------




--------------------------------------- Iteration      9(   4)  ---------------------------------------


    POTLOK:  cpu time      0.0744: real time      0.0756
    SETDIJ:  cpu time      0.9740: real time      0.9742
     EDDAV:  cpu time      2.2635: real time      2.2642
       DOS:  cpu time      0.0005: real time      0.0005
    CHARGE:  cpu time      0.5960: real time      0.5960
    MIXING:  cpu time      0.0028: real time      0.0028
    --------------------------------------------
      LOOP:  cpu time      3.9112: real time      3.9134

 eigenvalue-minimisations  :  2448
 total energy-change (2. order) : 0.1801554E-01  (-0.3252093E-01)
 number of electron     539.9999999 magnetization      12.0000000
 augmentation part        3.6563548 magnetization       2.6063054

 Broyden mixing:
  rms(total) = 0.19956E+00    rms(broyden)= 0.19949E+00
  rms(prec ) = 0.20994E+00
  weight for this iteration     100.00

 eigenvalues of (default mixing * dielectric matrix)
  average eigenvalue GAMMA=   1.0379
  2.1525  0.6288  0.3322

 Free energy of the ion-electron system (eV)
  ---------------------------------------------------
  alpha Z        PSCENC =      1011.17032867
  Ewald energy   TEWEN  =    121757.55770468
  -Hartree energ DENC   =   -160936.25000799
  -exchange      EXHF   =         0.00000000
  -V(xc)+E(xc)   XCENC  =      1512.63990129
  PAW double counting   =     40784.00766342   -40311.67710930
  entropy T*S    EENTRO =        -0.00000062
  eigenvalues    EBANDS =     -6625.84055287
  atomic energy  EATOM  =     42305.93172720
  Solvation  Ediel_sol  =         0.00000000
  ---------------------------------------------------
  free energy    TOTEN  =      -502.46034553 eV

  energy without entropy =     -502.46034491  energy(sigma->0) =     -502.46034522


--------------------------------------------------------------------------------------------------------




--------------------------------------- Iteration      9(   5)  ---------------------------------------


    POTLOK:  cpu time      0.0784: real time      0.0787
    SETDIJ:  cpu time      0.9727: real time      0.9732
     EDDAV:  cpu time      2.2909: real time      2.2919
       DOS:  cpu time      0.0006: real time      0.0006
    CHARGE:  cpu time      0.5930: real time      0.5930
    MIXING:  cpu time      0.0047: real time      0.0047
    --------------------------------------------
      LOOP:  cpu time      3.9403: real time      3.9420

 eigenvalue-minimisations  :  2496
 total energy-change (2. order) : 0.7313725E-02  (-0.2440490E-01)
 number of electron     539.9999999 magnetization      12.0000000
 augmentation part        3.6621186 magnetization       2.6050851

 Broyden mixing:
  rms(total) = 0.12204E+00    rms(broyden)= 0.12197E+00
  rms(prec ) = 0.13103E+00
  weight for this iteration     100.00

 eigenvalues of (default mixing * dielectric matrix)
  average eigenvalue GAMMA=   1.0015
  2.5876  0.6929  0.3784  0.3472

 Free energy of the ion-electron system (eV)
  ---------------------------------------------------
  alpha Z        PSCENC =      1011.17032867
  Ewald energy   TEWEN  =    121757.55770468
  -Hartree energ DENC   =   -160933.17109707
  -exchange      EXHF   =         0.00000000
  -V(xc)+E(xc)   XCENC  =      1512.65241633
  PAW double counting   =     40768.39897553   -40296.11842309
  entropy T*S    EENTRO =        -0.00000139
  eigenvalues    EBANDS =     -6628.87466266
  atomic energy  EATOM  =     42305.93172720
  Solvation  Ediel_sol  =         0.00000000
  ---------------------------------------------------
  free energy    TOTEN  =      -502.45303181 eV

  energy without entropy =     -502.45303042  energy(sigma->0) =     -502.45303111


--------------------------------------------------------------------------------------------------------




--------------------------------------- Iteration      9(   6)  ---------------------------------------


    POTLOK:  cpu time      0.0741: real time      0.0741
    SETDIJ:  cpu time      0.9765: real time      0.9775
     EDDAV:  cpu time      2.5290: real time      2.5304
       DOS:  cpu time      0.0005: real time      0.0006
    CHARGE:  cpu time      0.5988: real time      0.5998
    MIXING:  cpu time      0.0030: real time      0.0030
    --------------------------------------------
      LOOP:  cpu time      4.1819: real time      4.1854

 eigenvalue-minimisations  :  2784
 total energy-change (2. order) : 0.7322980E-02  (-0.8339836E-02)
 number of electron     539.9999999 magnetization      12.0000000
 augmentation part        3.6619618 magnetization       2.6040252

 Broyden mixing:
  rms(total) = 0.58714E-01    rms(broyden)= 0.58679E-01
  rms(prec ) = 0.61217E-01
  weight for this iteration     100.00

 eigenvalues of (default mixing * dielectric matrix)
  average eigenvalue GAMMA=   0.9482
  2.7650  0.6382  0.6382  0.3974  0.3023

 Free energy of the ion-electron system (eV)
  ---------------------------------------------------
  alpha Z        PSCENC =      1011.17032867
  Ewald energy   TEWEN  =    121757.55770468
  -Hartree energ DENC   =   -160933.51147520
  -exchange      EXHF   =         0.00000000
  -V(xc)+E(xc)   XCENC  =      1512.64921809
  PAW double counting   =     40761.61315060   -40289.32452431
  entropy T*S    EENTRO =        -0.00000075
  eigenvalues    EBANDS =     -6628.53183780
  atomic energy  EATOM  =     42305.93172720
  Solvation  Ediel_sol  =         0.00000000
  ---------------------------------------------------
  free energy    TOTEN  =      -502.44570883 eV

  energy without entropy =     -502.44570807  energy(sigma->0) =     -502.44570845


--------------------------------------------------------------------------------------------------------




--------------------------------------- Iteration      9(   7)  ---------------------------------------


    POTLOK:  cpu time      0.0741: real time      0.0741
    SETDIJ:  cpu time      0.9746: real time      0.9748
     EDDAV:  cpu time      2.1890: real time      2.1898
       DOS:  cpu time      0.0005: real time      0.0005
    CHARGE:  cpu time      0.5845: real time      0.5845
    MIXING:  cpu time      0.0049: real time      0.0049
    --------------------------------------------
      LOOP:  cpu time      3.8276: real time      3.8287

 eigenvalue-minimisations  :  2352
 total energy-change (2. order) :-0.4023942E-03  (-0.1451412E-02)
 number of electron     539.9999999 magnetization      12.0000000
 augmentation part        3.6661396 magnetization       2.6042439

 Broyden mixing:
  rms(total) = 0.34646E-01    rms(broyden)= 0.34632E-01
  rms(prec ) = 0.36308E-01
  weight for this iteration     100.00

 eigenvalues of (default mixing * dielectric matrix)
  average eigenvalue GAMMA=   0.9188
  2.8066  0.8062  0.8062  0.3135  0.4050  0.3756

 Free energy of the ion-electron system (eV)
  ---------------------------------------------------
  alpha Z        PSCENC =      1011.17032867
  Ewald energy   TEWEN  =    121757.55770468
  -Hartree energ DENC   =   -160933.27545891
  -exchange      EXHF   =         0.00000000
  -V(xc)+E(xc)   XCENC  =      1512.64960036
  PAW double counting   =     40759.00062402   -40286.71404371
  entropy T*S    EENTRO =        -0.00000069
  eigenvalues    EBANDS =     -6628.76659283
  atomic energy  EATOM  =     42305.93172720
  Solvation  Ediel_sol  =         0.00000000
  ---------------------------------------------------
  free energy    TOTEN  =      -502.44611122 eV

  energy without entropy =     -502.44611053  energy(sigma->0) =     -502.44611088


--------------------------------------------------------------------------------------------------------




--------------------------------------- Iteration      9(   8)  ---------------------------------------


    POTLOK:  cpu time      0.0750: real time      0.0751
    SETDIJ:  cpu time      0.9715: real time      0.9729
     EDDAV:  cpu time      2.3384: real time      2.3399
       DOS:  cpu time      0.0005: real time      0.0005
    CHARGE:  cpu time      0.6088: real time      0.6089
    MIXING:  cpu time      0.0049: real time      0.0049
    --------------------------------------------
      LOOP:  cpu time      3.9992: real time      4.0021

 eigenvalue-minimisations  :  2544
 total energy-change (2. order) :-0.5298174E-03  (-0.7154596E-03)
 number of electron     539.9999999 magnetization      12.0000000
 augmentation part        3.6624297 magnetization       2.6057969

 Broyden mixing:
  rms(total) = 0.25652E-01    rms(broyden)= 0.25643E-01
  rms(prec ) = 0.26862E-01
  weight for this iteration     100.00

 eigenvalues of (default mixing * dielectric matrix)
  average eigenvalue GAMMA=   0.9308
  2.8079  1.0472  1.0472  0.5515  0.4218  0.3296  0.3104

 Free energy of the ion-electron system (eV)
  ---------------------------------------------------
  alpha Z        PSCENC =      1011.17032867
  Ewald energy   TEWEN  =    121757.55770468
  -Hartree energ DENC   =   -160933.17244639
  -exchange      EXHF   =         0.00000000
  -V(xc)+E(xc)   XCENC  =      1512.63443095
  PAW double counting   =     40758.92574710   -40286.63711115
  entropy T*S    EENTRO =        -0.00000073
  eigenvalues    EBANDS =     -6628.85702135
  atomic energy  EATOM  =     42305.93172720
  Solvation  Ediel_sol  =         0.00000000
  ---------------------------------------------------
  free energy    TOTEN  =      -502.44664104 eV

  energy without entropy =     -502.44664031  energy(sigma->0) =     -502.44664068


--------------------------------------------------------------------------------------------------------




--------------------------------------- Iteration      9(   9)  ---------------------------------------


    POTLOK:  cpu time      0.0750: real time      0.0750
    SETDIJ:  cpu time      0.9765: real time      0.9777
     EDDAV:  cpu time      2.1081: real time      2.1090
       DOS:  cpu time      0.0006: real time      0.0006
    CHARGE:  cpu time      0.5860: real time      0.5861
    MIXING:  cpu time      0.0027: real time      0.0028
    --------------------------------------------
      LOOP:  cpu time      3.7488: real time      3.7510

 eigenvalue-minimisations  :  2256
 total energy-change (2. order) :-0.5738033E-03  (-0.3334233E-03)
 number of electron     539.9999999 magnetization      12.0000000
 augmentation part        3.6642411 magnetization       2.6057632

 Broyden mixing:
  rms(total) = 0.15217E-01    rms(broyden)= 0.15208E-01
  rms(prec ) = 0.15987E-01
  weight for this iteration     100.00

 eigenvalues of (default mixing * dielectric matrix)
  average eigenvalue GAMMA=   0.9506
  2.7676  1.7226  0.9929  0.5637  0.5637  0.3748  0.3098  0.3098

 Free energy of the ion-electron system (eV)
  ---------------------------------------------------
  alpha Z        PSCENC =      1011.17032867
  Ewald energy   TEWEN  =    121757.55770468
  -Hartree energ DENC   =   -160932.64891093
  -exchange      EXHF   =         0.00000000
  -V(xc)+E(xc)   XCENC  =      1512.62371003
  PAW double counting   =     40758.81200415   -40286.51702271
  entropy T*S    EENTRO =        -0.00000067
  eigenvalues    EBANDS =     -6629.37675526
  atomic energy  EATOM  =     42305.93172720
  Solvation  Ediel_sol  =         0.00000000
  ---------------------------------------------------
  free energy    TOTEN  =      -502.44721484 eV

  energy without entropy =     -502.44721418  energy(sigma->0) =     -502.44721451


--------------------------------------------------------------------------------------------------------




--------------------------------------- Iteration      9(  10)  ---------------------------------------


    POTLOK:  cpu time      0.0773: real time      0.0773
    SETDIJ:  cpu time      0.9762: real time      0.9767
