<?xml version="1.0" encoding="ISO-8859-1"?>
<modeling>
 <generator>
  <i name="program" type="string">vasp </i>
  <i name="version" type="string">6.4.3  </i>
  <i name="subversion" type="string">19Mar24 (build Mar 01 2025 18:03:59) gamma-only                       parallel </i>
  <i name="platform" type="string">Shaheen </i>
  <i name="date" type="string">2025 04 27 </i>
  <i name="time" type="string">15:13:28 </i>
 </generator>
 <incar>
  <i type="int" name="ISTART">     1</i>
  <i type="string" name="PREC">Accurate   (Precision level: Normal or Accurate, set Accurate when perform structure lattice relaxation calculation)</i>
  <i type="logical" name="ADDGRID"> T  </i>
  <i type="int" name="ISPIN">     2</i>
  <i type="int" name="NELM">    90</i>
  <i type="int" name="NELMIN">     6</i>
  <i type="int" name="IBRION">     2</i>
  <i name="EDIFF">      0.00000100</i>
  <i name="EDIFFG">     -0.02000000</i>
  <i type="int" name="NSW">   300</i>
  <i type="int" name="ISIF">     2</i>
  <i name="ENCUT">    520.00000000</i>
  <v name="MAGMOM">      1.00000000      1.00000000      1.00000000      1.00000000      1.00000000      1.00000000      1.00000000      1.00000000      1.00000000      1.00000000      1.00000000      1.00000000      1.00000000      1.00000000      1.00000000      1.00000000      1.00000000      1.00000000      0.60000000      0.60000000
      0.60000000      0.60000000      0.60000000      0.60000000      0.60000000      0.60000000      0.60000000      0.60000000      0.60000000      0.60000000      0.60000000      0.60000000      0.60000000      0.60000000      0.60000000      0.60000000      0.60000000      0.60000000      0.60000000      0.60000000
      0.60000000      0.60000000      0.60000000      0.60000000      0.60000000      0.60000000      0.60000000      0.60000000      0.60000000      0.60000000      0.60000000      0.60000000      0.60000000      0.60000000      0.60000000      0.60000000      0.60000000      0.60000000      0.60000000      0.60000000
      0.60000000      0.60000000      0.60000000      0.60000000      0.60000000      0.60000000      0.60000000      0.60000000      0.60000000      0.60000000      0.60000000</v>
  <i type="logical" name="LREAL"> F  </i>
  <i type="int" name="ISMEAR">     0</i>
  <i name="SIGMA">      0.05000000</i>
  <i type="int" name="LMAXMIX">     6</i>
  <i type="logical" name="LWAVE"> F  </i>
  <i type="logical" name="LCHARG"> F  </i>
  <i type="logical" name="LASPH"> T  </i>
  <i type="logical" name="LDAU"> T  </i>
  <i type="int" name="LDAUTYPE">     2</i>
  <v type="int" name="LDAUL">     3    -1     2</v>
  <v name="LDAUU">      5.00000000      0.00000000      2.00000000</v>
  <v name="LDAUJ">      0.00000000      0.00000000      0.00000000</v>
 </incar>
 <primitive_cell>
  <structure name="primitive_cell" >
   <crystal>
    <varray name="basis" >
     <v>      11.59819984       0.00000000       0.00000000 </v>
     <v>      -5.79909992      10.04433570       0.00000000 </v>
     <v>       0.00000000       0.00000000      21.04820061 </v>
    </varray>
    <i name="volume">   2452.03565684 </i>
    <varray name="rec_basis" >
     <v>       0.08622028       0.04977930       0.00000000 </v>
     <v>       0.00000000       0.09955860       0.00000000 </v>
     <v>       0.00000000       0.00000000       0.04751000 </v>
    </varray>
   </crystal>
   <varray name="positions" >
    <v>       0.00000000       0.00000000       0.45993000 </v>
    <v>       0.22222000       0.11111000       0.30996000 </v>
    <v>       0.33333000       0.00000000       0.45993000 </v>
    <v>       0.55556000       0.11111000       0.30996000 </v>
    <v>       0.66667000       0.00000000       0.45993000 </v>
    <v>       0.88889000       0.11111000       0.30996000 </v>
    <v>       1.00000000       0.33333000       0.45993000 </v>
    <v>       0.22222000       0.44444000       0.30996000 </v>
    <v>       0.33333000       0.33333000       0.45993000 </v>
    <v>       0.55556000       0.44444000       0.30996000 </v>
    <v>       0.66667000       0.33333000       0.45993000 </v>
    <v>       0.88889000       0.44444000       0.30996000 </v>
    <v>       1.00000000       0.66667000       0.45993000 </v>
    <v>       0.22222000       0.77778000       0.30996000 </v>
    <v>       0.33333000       0.66667000       0.45993000 </v>
    <v>       0.55556000       0.77778000       0.30996000 </v>
    <v>       0.66667000       0.66667000       0.45993000 </v>
    <v>       0.88889000       0.77778000       0.30996000 </v>
    <v>       0.00000000       0.00000000       0.57241000 </v>
    <v>       0.11111000       0.22222000       0.27247000 </v>
    <v>       0.22222000       0.11111000       0.42244000 </v>
    <v>       0.11111000       0.22222000       0.49742000 </v>
    <v>       0.00000000       0.00000000       0.34745000 </v>
    <v>       0.33333000       0.00000000       0.57241000 </v>
    <v>       0.44444000       0.22222000       0.27247000 </v>
    <v>       0.55556000       0.11111000       0.42244000 </v>
    <v>       0.44444000       0.22222000       0.49742000 </v>
    <v>       0.33333000       0.00000000       0.34745000 </v>
    <v>       0.66667000       0.00000000       0.57241000 </v>
    <v>       0.77778000       0.22222000       0.27247000 </v>
    <v>       0.88889000       0.11111000       0.42244000 </v>
    <v>       0.77778000       0.22222000       0.49742000 </v>
    <v>       0.66667000       0.00000000       0.34745000 </v>
    <v>       1.00000000       0.33333000       0.57241000 </v>
    <v>       0.11111000       0.55556000       0.27247000 </v>
    <v>       0.22222000       0.44444000       0.42244000 </v>
    <v>       0.11111000       0.55556000       0.49742000 </v>
    <v>       1.00000000       0.33333000       0.34745000 </v>
    <v>       0.33333000       0.33333000       0.57241000 </v>
    <v>       0.44444000       0.55556000       0.27247000 </v>
    <v>       0.55556000       0.44444000       0.42244000 </v>
    <v>       0.44444000       0.55556000       0.49742000 </v>
    <v>       0.33333000       0.33333000       0.34745000 </v>
    <v>       0.66667000       0.33333000       0.57241000 </v>
    <v>       0.77778000       0.55556000       0.27247000 </v>
    <v>       0.88889000       0.44444000       0.42244000 </v>
    <v>       0.77778000       0.55556000       0.49742000 </v>
    <v>       0.66667000       0.33333000       0.34745000 </v>
    <v>       1.00000000       0.66667000       0.57241000 </v>
    <v>       0.11111000       0.88889000       0.27247000 </v>
    <v>       0.22222000       0.77778000       0.42244000 </v>
    <v>       0.11111000       0.88889000       0.49742000 </v>
    <v>       1.00000000       0.66667000       0.34745000 </v>
    <v>       0.33333000       0.66667000       0.57241000 </v>
    <v>       0.44444000       0.88889000       0.27247000 </v>
    <v>       0.55556000       0.77778000       0.42244000 </v>
    <v>       0.44444000       0.88889000       0.49742000 </v>
    <v>       0.33333000       0.66667000       0.34745000 </v>
    <v>       0.66667000       0.66667000       0.57241000 </v>
    <v>       0.77778000       0.88889000       0.27247000 </v>
    <v>       0.88889000       0.77778000       0.42244000 </v>
    <v>       0.77778000       0.88889000       0.49742000 </v>
    <v>       0.66667000       0.66667000       0.34745000 </v>
    <v>       0.41995000       0.90566000       0.63222000 </v>
    <v>       0.56244000       0.76382000       0.64172000 </v>
    <v>       0.55931000       0.77277000       0.51616000 </v>
    <v>       0.42431000       0.57633000       0.63422000 </v>
    <v>       0.55313000       0.44676000       0.64709000 </v>
    <v>       0.56544000       0.43664000       0.51651000 </v>
    <v>       0.49197000       0.83062000       0.57349000 </v>
    <v>       0.49190000       0.50494000       0.57828000 </v>
   </varray>
  </structure>
  <varray name="primitive_index" >
   <v type="int" >        1 </v>
   <v type="int" >        2 </v>
   <v type="int" >        3 </v>
   <v type="int" >        4 </v>
   <v type="int" >        5 </v>
   <v type="int" >        6 </v>
   <v type="int" >        7 </v>
   <v type="int" >        8 </v>
   <v type="int" >        9 </v>
   <v type="int" >       10 </v>
   <v type="int" >       11 </v>
   <v type="int" >       12 </v>
   <v type="int" >       13 </v>
   <v type="int" >       14 </v>
   <v type="int" >       15 </v>
   <v type="int" >       16 </v>
   <v type="int" >       17 </v>
   <v type="int" >       18 </v>
   <v type="int" >       19 </v>
   <v type="int" >       20 </v>
   <v type="int" >       21 </v>
   <v type="int" >       22 </v>
   <v type="int" >       23 </v>
   <v type="int" >       24 </v>
   <v type="int" >       25 </v>
   <v type="int" >       26 </v>
   <v type="int" >       27 </v>
   <v type="int" >       28 </v>
   <v type="int" >       29 </v>
   <v type="int" >       30 </v>
   <v type="int" >       31 </v>
   <v type="int" >       32 </v>
   <v type="int" >       33 </v>
   <v type="int" >       34 </v>
   <v type="int" >       35 </v>
   <v type="int" >       36 </v>
   <v type="int" >       37 </v>
   <v type="int" >       38 </v>
   <v type="int" >       39 </v>
   <v type="int" >       40 </v>
   <v type="int" >       41 </v>
   <v type="int" >       42 </v>
   <v type="int" >       43 </v>
   <v type="int" >       44 </v>
   <v type="int" >       45 </v>
   <v type="int" >       46 </v>
   <v type="int" >       47 </v>
   <v type="int" >       48 </v>
   <v type="int" >       49 </v>
   <v type="int" >       50 </v>
   <v type="int" >       51 </v>
   <v type="int" >       52 </v>
   <v type="int" >       53 </v>
   <v type="int" >       54 </v>
   <v type="int" >       55 </v>
   <v type="int" >       56 </v>
   <v type="int" >       57 </v>
   <v type="int" >       58 </v>
   <v type="int" >       59 </v>
   <v type="int" >       60 </v>
   <v type="int" >       61 </v>
   <v type="int" >       62 </v>
   <v type="int" >       63 </v>
   <v type="int" >       64 </v>
   <v type="int" >       65 </v>
   <v type="int" >       66 </v>
   <v type="int" >       67 </v>
   <v type="int" >       68 </v>
   <v type="int" >       69 </v>
   <v type="int" >       70 </v>
   <v type="int" >       71 </v>
  </varray>
 </primitive_cell>
 <kpoints>
  <generation param="Gamma">
   <v type="int" name="divisions">       1        1        1 </v>
   <v name="usershift">      0.00000000       0.00000000       0.00000000 </v>
   <v name="genvec1">      1.00000000      -0.00000000       0.00000000 </v>
   <v name="genvec2">      0.00000000       1.00000000       0.00000000 </v>
   <v name="genvec3">      0.00000000       0.00000000       1.00000000 </v>
   <v name="shift">      0.00000000       0.00000000       0.00000000 </v>
  </generation>
  <varray name="kpointlist" >
   <v>       0.00000000       0.00000000       0.00000000 </v>
  </varray>
  <varray name="weights" >
   <v>       1.00000000 </v>
  </varray>
 </kpoints>
 <parameters>
  <separator name="general" >
   <i type="string" name="SYSTEM">unknown system</i>
   <i type="logical" name="LCOMPAT"> F  </i>
  </separator>
  <separator name="electronic" >
   <i type="string" name="PREC">accura</i>
   <i name="ENMAX">    520.00000000</i>
   <i name="ENAUG">    605.39200000</i>
   <i name="EDIFF">      0.00000100</i>
   <i type="int" name="IALGO">    38</i>
   <i type="int" name="IWAVPR">    11</i>
   <i type="int" name="NBANDS">   384</i>
   <i type="int" name="NBANDSLOW">    -1</i>
   <i type="int" name="NBANDSHIGH">    -1</i>
   <i name="NELECT">    540.00000000</i>
   <i type="int" name="TURBO">     0</i>
   <i type="int" name="IRESTART">     0</i>
   <i type="int" name="NREBOOT">     0</i>
   <i type="int" name="NMIN">     0</i>
   <i name="EREF">      0.00000000</i>
   <separator name="electronic smearing" >
    <i type="int" name="ISMEAR">     0</i>
    <i name="SIGMA">      0.05000000</i>
    <i name="KSPACING">      0.50000000</i>
    <i type="logical" name="KGAMMA"> T  </i>
    <i type="logical" name="KBLOWUP"> T  </i>
   </separator>
   <separator name="electronic projectors" >
    <i type="logical" name="LREAL"> F  </i>
    <v name="ROPT">      0.00000000      0.00000000      0.00000000</v>
    <i type="int" name="LMAXPAW">  -100</i>
    <i type="int" name="LMAXMIX">     6</i>
    <i type="logical" name="NLSPLINE"> F  </i>
   </separator>
   <separator name="electronic startup" >
    <i type="int" name="ISTART">     0</i>
    <i type="int" name="ICHARG">     2</i>
    <i type="int" name="INIWAV">     1</i>
   </separator>
   <separator name="electronic spin" >
    <i type="int" name="ISPIN">     2</i>
    <i type="logical" name="LNONCOLLINEAR"> F  </i>
    <v name="MAGMOM">      1.00000000      1.00000000      1.00000000      1.00000000      1.00000000      1.00000000      1.00000000      1.00000000      1.00000000      1.00000000      1.00000000      1.00000000      1.00000000      1.00000000      1.00000000      1.00000000      1.00000000      1.00000000      0.60000000      0.60000000
      0.60000000      0.60000000      0.60000000      0.60000000      0.60000000      0.60000000      0.60000000      0.60000000      0.60000000      0.60000000      0.60000000      0.60000000      0.60000000      0.60000000      0.60000000      0.60000000      0.60000000      0.60000000      0.60000000      0.60000000
      0.60000000      0.60000000      0.60000000      0.60000000      0.60000000      0.60000000      0.60000000      0.60000000      0.60000000      0.60000000      0.60000000      0.60000000      0.60000000      0.60000000      0.60000000      0.60000000      0.60000000      0.60000000      0.60000000      0.60000000
      0.60000000      0.60000000      0.60000000      0.60000000      0.60000000      0.60000000      0.60000000      0.60000000      0.60000000      0.60000000      0.60000000</v>
    <i name="NUPDOWN">     -1.00000000</i>
    <i type="logical" name="LSORBIT"> F  </i>
    <v name="SAXIS">      0.00000000      0.00000000      1.00000000</v>
    <i type="logical" name="LSPIRAL"> F  </i>
    <v name="QSPIRAL">      0.00000000      0.00000000      0.00000000</v>
    <i type="logical" name="LZEROZ"> F  </i>
   </separator>
   <separator name="electronic exchange-correlation" >
    <i type="logical" name="LASPH"> T  </i>
   </separator>
   <separator name="electronic convergence" >
    <i type="int" name="NELM">    90</i>
    <i type="int" name="NELMDL">     0</i>
    <i type="int" name="NELMIN">     6</i>
    <i name="ENINI">    520.00000000</i>
    <separator name="electronic convergence detail" >
     <i type="logical" name="LDIAG"> T  </i>
     <i type="logical" name="LSUBROT"> F  </i>
     <i name="WEIMIN">      0.00100000</i>
     <i name="EBREAK">      0.00000000</i>
     <i name="DEPER">      0.30000000</i>
     <i type="int" name="NRMM">     4</i>
     <i name="TIME">      0.40000000</i>
    </separator>
   </separator>
   <separator name="electronic mixer" >
    <i name="AMIX">      0.40000000</i>
    <i name="BMIX">      1.00000000</i>
    <i name="AMIN">      0.10000000</i>
    <i name="AMIX_MAG">      1.60000000</i>
    <i name="BMIX_MAG">      1.00000000</i>
    <separator name="electronic mixer details" >
     <i type="int" name="IMIX">     4</i>
     <i type="logical" name="MIXFIRST"> F  </i>
     <i type="int" name="MAXMIX">   -45</i>
     <i name="WC">    100.00000000</i>
     <i type="int" name="INIMIX">     1</i>
     <i type="int" name="MIXPRE">     1</i>
     <i type="int" name="MREMOVE">     5</i>
    </separator>
   </separator>
   <separator name="electronic dipolcorrection" >
    <i type="logical" name="LDIPOL"> F  </i>
    <i type="logical" name="LMONO"> F  </i>
    <i type="int" name="IDIPOL">     0</i>
    <i name="EPSILON">      1.00000000</i>
    <v name="DIPOL">   -100.00000000   -100.00000000   -100.00000000</v>
    <i name="EFIELD">      0.00000000</i>
    <i type="logical" name="LVACPOTAV"> F  </i>
   </separator>
  </separator>
  <separator name="grids" >
   <i type="int" name="NGX">    90</i>
   <i type="int" name="NGY">    90</i>
   <i type="int" name="NGZ">   160</i>
   <i type="int" name="NGXF">   180</i>
   <i type="int" name="NGYF">   180</i>
   <i type="int" name="NGZF">   320</i>
   <i type="logical" name="ADDGRID"> T  </i>
  </separator>
  <separator name="ionic" >
   <i type="int" name="NSW">   300</i>
   <i type="int" name="IBRION">     2</i>
   <i type="int" name="MDALGO">     0</i>
   <i type="int" name="ISIF">     2</i>
   <i name="PSTRESS">      0.00000000</i>
   <i name="EDIFFG">     -0.02000000</i>
   <i type="int" name="NFREE">     1</i>
   <i name="POTIM">      0.50000000</i>
   <i name="SMASS">     -3.00000000</i>
   <i name="SCALEE">      1.00000000</i>
  </separator>
  <separator name="ionic md" >
   <i name="TEBEG">      0.00010000</i>
   <i name="TEEND">      0.00010000</i>
   <i type="int" name="NBLOCK">     1</i>
   <i type="int" name="KBLOCK">   300</i>
   <i type="int" name="NPACO">   256</i>
   <i name="APACO">     10.00000000</i>
  </separator>
  <separator name="symmetry" >
   <i type="int" name="ISYM">     2</i>
   <i name="SYMPREC">      0.00001000</i>
  </separator>
  <separator name="dos" >
   <i type="int" name="LORBIT">     0</i>
   <v name="RWIGS">     -1.00000000     -1.00000000     -1.00000000</v>
   <i type="int" name="NEDOS">   301</i>
   <i name="EMIN">     10.00000000</i>
   <i name="EMAX">    -10.00000000</i>
   <i name="EFERMI">      0.00000000</i>
  </separator>
  <separator name="writing" >
   <i type="int" name="NWRITE">     2</i>
   <i type="logical" name="LWAVE"> F  </i>
   <i type="logical" name="LDOWNSAMPLE"> F  </i>
   <i type="logical" name="LCHARG"> F  </i>
   <i type="logical" name="LPARD"> F  </i>
   <i type="logical" name="LVTOT"> F  </i>
   <i type="logical" name="LVHAR"> F  </i>
   <i type="logical" name="LELF"> F  </i>
   <i type="logical" name="LOPTICS"> F  </i>
   <v name="STM">      0.00000000      0.00000000      0.00000000      0.00000000      0.00000000      0.00000000      0.00000000</v>
  </separator>
  <separator name="performance" >
   <i type="int" name="NPAR">    48</i>
   <i type="int" name="NSIM">     4</i>
   <i type="int" name="NBLK">    -1</i>
   <i type="logical" name="LPLANE"> T  </i>
   <i type="logical" name="LSCALAPACK"> T  </i>
   <i type="logical" name="LSCAAWARE"> T  </i>
   <i type="logical" name="LSCALU"> F  </i>
   <i type="logical" name="LASYNC"> F  </i>
   <i type="logical" name="LORBITALREAL"> F  </i>
  </separator>
  <separator name="miscellaneous" >
   <i type="int" name="IDIOT">     3</i>
   <i type="int" name="PHON_NSTRUCT">    -1</i>
   <i type="logical" name="LMUSIC"> F  </i>
   <v name="POMASS">    140.11500000     16.00000000    192.22000000</v>
   <v name="DARWINR">      0.00000000      0.00000000      0.00000000</v>
   <v name="DARWINV">      1.00000000      1.00000000      1.00000000</v>
   <i type="logical" name="LCORR"> T  </i>
  </separator>
  <i type="logical" name="GGA_COMPAT"> T  </i>
  <i type="logical" name="LBERRY"> F  </i>
  <i type="int" name="ICORELEVEL">     0</i>
  <i type="logical" name="LDAU"> T  </i>
  <v type="int" name="LDAUTYPE">     2</v>
  <v type="int" name="LDAUL">     3</v>
  <v name="LDAUU">      5.00000000</v>
  <v name="LDAUJ">      0.00000000</v>
  <i type="int" name="LDAUPRINT">     0</i>
  <i type="int" name="I_CONSTRAINED_M">     0</i>
  <separator name="electronic exchange-correlation" >
   <i type="string" name="GGA    ">PE</i>
   <i type="string" name="XC_C">1</i>
   <i type="int" name="VOSKOWN">     0</i>
   <i type="logical" name="LHFCALC"> F  </i>
   <i type="string" name="PRECFOCK"></i>
   <i type="logical" name="LSYMGRAD"> F  </i>
   <i type="logical" name="LHFONE"> F  </i>
   <i type="logical" name="LRHFCALC"> F  </i>
   <i type="logical" name="LTHOMAS"> F  </i>
   <i type="logical" name="LMODELHF"> F  </i>
   <i type="logical" name="LFOCKACE"> F  </i>
   <i name="ENCUT4O">     -1.00000000</i>
   <i type="int" name="EXXOEP">     0</i>
   <i type="int" name="FOURORBIT">     0</i>
   <i name="AEXX">      0.00000000</i>
   <i name="HFALPHA">      0.00000000</i>
   <i name="MCALPHA">      0.00000000</i>
   <i name="ALDAX">      1.00000000</i>
   <i name="AGGAX">      1.00000000</i>
   <i name="AMGGAX">      1.00000000</i>
   <i name="ALDAC">      1.00000000</i>
   <i name="AGGAC">      1.00000000</i>
   <i name="AMGGAC">      1.00000000</i>
   <i type="int" name="NKREDX">     1</i>
   <i type="int" name="NKREDY">     1</i>
   <i type="int" name="NKREDZ">     1</i>
   <i type="logical" name="SHIFTRED"> F  </i>
   <i type="logical" name="ODDONLY"> F  </i>
   <i type="logical" name="EVENONLY"> F  </i>
   <i type="int" name="LMAXFOCK">     0</i>
   <i type="int" name="NMAXFOCKAE">     0</i>
   <i type="logical" name="LFOCKAEDFT"> F  </i>
   <i name="HFSCREEN">      0.00000000</i>
   <i name="HFSCREENC">      0.00000000</i>
   <i type="int" name="NBANDSGWLOW">     0</i>
  </separator>
  <separator name="vdW DFT" >
   <i type="logical" name="LUSE_VDW"> F  </i>
   <i type="int" name="IVDW_NL">    -1</i>
   <i type="logical" name="LSPIN_VDW"> F  </i>
   <i name="ZAB_VDW">     -0.84910000</i>
   <i name="GAMMA_VDW">      1.39626340</i>
   <i name="ALPHA_VDW">      0.00000000</i>
   <i name="PARAM1">      0.12340000</i>
   <i name="PARAM2">      1.00000000</i>
   <i name="BPARAM">      6.30000000</i>
   <i name="CPARAM">      0.00930000</i>
  </separator>
  <separator name="model GW" >
   <i type="int" name="MODEL_GW">     0</i>
   <i name="MODEL_EPS0">     20.72142809</i>
   <i name="MODEL_ALPHA">      1.00000000</i>
  </separator>
  <separator name="linear response parameters" >
   <i type="logical" name="LEPSILON"> F  </i>
   <i type="logical" name="LRPA"> F  </i>
   <i type="logical" name="LNABLA"> F  </i>
   <i type="logical" name="LVEL"> F  </i>
   <i name="CSHIFT">      0.10000000</i>
   <i name="OMEGAMAX">     -1.00000000</i>
   <i name="DEG_THRESHOLD">      0.00200000</i>
   <i name="RTIME">     -0.10000000</i>
   <i name="WPLASMAI">      0.00000000</i>
   <v name="DFIELD">      0.00000000      0.00000000      0.00000000</v>
   <v name="WPLASMA">      0.00000000      0.00000000      0.00000000      0.00000000      0.00000000      0.00000000      0.00000000      0.00000000      0.00000000</v>
  </separator>
  <separator name="orbital magnetization" >
   <i type="logical" name="NUCIND"> F  </i>
   <v name="MAGPOS">      0.00000000      0.00000000      0.00000000</v>
   <i type="logical" name="LNICSALL"> T  </i>
   <i type="logical" name="ORBITALMAG"> F  </i>
   <i type="logical" name="LMAGBLOCH"> F  </i>
   <i type="logical" name="LCHIMAG"> F  </i>
   <i type="logical" name="LGAUGE"> T  </i>
   <i type="int" name="MAGATOM">     0</i>
   <v name="MAGDIPOL">      0.00000000      0.00000000      0.00000000</v>
   <v name="AVECCONST">      0.00000000      0.00000000      0.00000000</v>
  </separator>
  <separator name="response functions" >
   <i type="logical" name="LALL_IN_ONE"> F  </i>
   <i type="int" name="IALL_IN_ONE">    -1</i>
   <i type="int" name="NBANDS_WAVE">    -1</i>
   <i type="logical" name="LFINITE_TEMPERATURE"> F  </i>
   <i type="logical" name="LADDER"> F  </i>
   <i type="logical" name="LRPAFORCE"> F  </i>
   <i type="logical" name="LFXC"> F  </i>
   <i type="logical" name="LHARTREE"> T  </i>
   <i type="int" name="IBSE">     0</i>
   <v type="int" name="KPOINT">    -1     0     0     0</v>
   <i type="logical" name="LTCTC"> F  </i>
   <i type="logical" name="LTCTE"> F  </i>
   <i type="logical" name="LTETE"> F  </i>
   <i type="logical" name="LTRIPLET"> F  </i>
   <i type="logical" name="LFXCEPS"> F  </i>
   <i type="logical" name="LFXHEG"> F  </i>
   <i type="int" name="NATURALO">     2</i>
   <i type="logical" name="LHOLEGF"> F  </i>
   <i type="logical" name="L2ORDER"> F  </i>
   <i type="logical" name="LDMP1"> F  </i>
   <i type="logical" name="LMP2LT"> F  </i>
   <i type="logical" name="LSMP2LT"> F  </i>
   <i type="logical" name="LGWLF"> F  </i>
   <i name="ENCUTGW">     -1.60000002</i>
   <i name="ENCUTGWSOFT">     -1.60000002</i>
   <i name="ENCUTLF">     -1.00000000</i>
   <i type="logical" name="ESF_SPLINES"> F  </i>
   <i name="ESF_CONV">      0.01000000</i>
   <i type="int" name="ESF_NINTER">    15</i>
   <i type="int" name="LMAXMP2">    -1</i>
   <i name="SCISSOR">      0.00000000</i>
   <i type="int" name="NOMEGA">     0</i>
   <i type="int" name="NOMEGAR">     0</i>
   <i type="int" name="NBANDSGW">    -1</i>
   <i type="int" name="NBANDSO">    -1</i>
   <i type="int" name="NBANDSV">    -1</i>
   <i type="int" name="NELMGW">     1</i>
   <i type="int" name="NELMHF">     1</i>
   <i type="int" name="DIM">     3</i>
   <i type="int" name="IESPILON">     4</i>
   <i type="int" name="ANTIRES">     0</i>
   <i name="OMEGAMAX">    -30.00000000</i>
   <i name="OMEGAMIN">    -30.00000000</i>
   <i name="OMEGATL">   -200.00000000</i>
   <i type="int" name="OMEGAGRID">     0</i>
   <i name="CSHIFT">     -0.10000000</i>
   <i type="logical" name="LSELFENERGY"> F  </i>
   <i type="logical" name="LSPECTRAL"> F  </i>
   <i type="logical" name="LSPECTRALGW"> F  </i>
   <i type="logical" name="LSINGLES"> F  </i>
   <i type="logical" name="LFERMIGW"> F  </i>
   <i type="logical" name="ODDONLYGW"> F  </i>
   <i type="logical" name="EVENONLYGW"> F  </i>
   <i type="int" name="NKREDLFX">     1</i>
   <i type="int" name="NKREDLFY">     1</i>
   <i type="int" name="NKREDLFZ">     1</i>
   <i type="int" name="MAXMEM">  2800</i>
   <i type="int" name="TELESCOPE">     0</i>
   <i type="int" name="NTAUPAR">    -1</i>
   <i type="int" name="NOMEGAPAR">    -1</i>
   <i name="DAMP_NEWTON">      0.80000001</i>
   <i name="LAMBDA">      1.00000000</i>
  </separator>
  <separator name="External order field" >
   <i name="OFIELD_KAPPA">      0.00000000</i>
   <v name="OFIELD_K">      0.00000000      0.00000000      0.00000000</v>
   <i name="OFIELD_Q6_NEAR">      0.00000000</i>
   <i name="OFIELD_Q6_FAR">      0.00000000</i>
   <i name="OFIELD_A">      0.00000000</i>
  </separator>
  <separator name="optional k-points parameters" >
   <i type="int" name="KPOINTS_OPT_MODE">     1</i>
   <i type="logical" name="LKPOINTS_OPT"> F  </i>
  </separator>
 </parameters>
 <atominfo>
  <atoms>      71 </atoms>
  <types>       3 </types>
  <array name="atoms" >
   <dimension dim="1">ion</dimension>
   <field type="string">element</field>
   <field type="int">atomtype</field>
   <set>
    <rc><c>Ce</c><c>   1</c></rc>
    <rc><c>Ce</c><c>   1</c></rc>
    <rc><c>Ce</c><c>   1</c></rc>
    <rc><c>Ce</c><c>   1</c></rc>
    <rc><c>Ce</c><c>   1</c></rc>
    <rc><c>Ce</c><c>   1</c></rc>
    <rc><c>Ce</c><c>   1</c></rc>
    <rc><c>Ce</c><c>   1</c></rc>
    <rc><c>Ce</c><c>   1</c></rc>
    <rc><c>Ce</c><c>   1</c></rc>
    <rc><c>Ce</c><c>   1</c></rc>
    <rc><c>Ce</c><c>   1</c></rc>
    <rc><c>Ce</c><c>   1</c></rc>
    <rc><c>Ce</c><c>   1</c></rc>
    <rc><c>Ce</c><c>   1</c></rc>
    <rc><c>Ce</c><c>   1</c></rc>
    <rc><c>Ce</c><c>   1</c></rc>
    <rc><c>Ce</c><c>   1</c></rc>
    <rc><c>O </c><c>   2</c></rc>
    <rc><c>O </c><c>   2</c></rc>
    <rc><c>O </c><c>   2</c></rc>
    <rc><c>O </c><c>   2</c></rc>
    <rc><c>O </c><c>   2</c></rc>
    <rc><c>O </c><c>   2</c></rc>
    <rc><c>O </c><c>   2</c></rc>
    <rc><c>O </c><c>   2</c></rc>
    <rc><c>O </c><c>   2</c></rc>
    <rc><c>O </c><c>   2</c></rc>
    <rc><c>O </c><c>   2</c></rc>
    <rc><c>O </c><c>   2</c></rc>
    <rc><c>O </c><c>   2</c></rc>
    <rc><c>O </c><c>   2</c></rc>
    <rc><c>O </c><c>   2</c></rc>
    <rc><c>O </c><c>   2</c></rc>
    <rc><c>O </c><c>   2</c></rc>
    <rc><c>O </c><c>   2</c></rc>
    <rc><c>O </c><c>   2</c></rc>
    <rc><c>O </c><c>   2</c></rc>
    <rc><c>O </c><c>   2</c></rc>
    <rc><c>O </c><c>   2</c></rc>
    <rc><c>O </c><c>   2</c></rc>
    <rc><c>O </c><c>   2</c></rc>
    <rc><c>O </c><c>   2</c></rc>
    <rc><c>O </c><c>   2</c></rc>
    <rc><c>O </c><c>   2</c></rc>
    <rc><c>O </c><c>   2</c></rc>
    <rc><c>O </c><c>   2</c></rc>
    <rc><c>O </c><c>   2</c></rc>
    <rc><c>O </c><c>   2</c></rc>
    <rc><c>O </c><c>   2</c></rc>
    <rc><c>O </c><c>   2</c></rc>
    <rc><c>O </c><c>   2</c></rc>
    <rc><c>O </c><c>   2</c></rc>
    <rc><c>O </c><c>   2</c></rc>
    <rc><c>O </c><c>   2</c></rc>
    <rc><c>O </c><c>   2</c></rc>
    <rc><c>O </c><c>   2</c></rc>
    <rc><c>O </c><c>   2</c></rc>
    <rc><c>O </c><c>   2</c></rc>
    <rc><c>O </c><c>   2</c></rc>
    <rc><c>O </c><c>   2</c></rc>
    <rc><c>O </c><c>   2</c></rc>
    <rc><c>O </c><c>   2</c></rc>
    <rc><c>O </c><c>   2</c></rc>
    <rc><c>O </c><c>   2</c></rc>
    <rc><c>O </c><c>   2</c></rc>
    <rc><c>O </c><c>   2</c></rc>
    <rc><c>O </c><c>   2</c></rc>
    <rc><c>O </c><c>   2</c></rc>
    <rc><c>Ir</c><c>   3</c></rc>
    <rc><c>Ir</c><c>   3</c></rc>
   </set>
  </array>
  <array name="atomtypes" >
   <dimension dim="1">type</dimension>
   <field type="int">atomspertype</field>
   <field type="string">element</field>
   <field>mass</field>
   <field>valence</field>
   <field type="string">pseudopotential</field>
   <set>
    <rc><c>  18</c><c>Ce</c><c>    140.11500000</c><c>     12.00000000</c><c>  PAW_PBE Ce 23Dec2003                  </c></rc>
    <rc><c>  51</c><c>O </c><c>     16.00000000</c><c>      6.00000000</c><c>  PAW_PBE O 08Apr2002                   </c></rc>
    <rc><c>   2</c><c>Ir</c><c>    192.22000000</c><c>      9.00000000</c><c>  PAW_PBE Ir 06Sep2000                  </c></rc>
   </set>
  </array>
 </atominfo>
 <structure name="initialpos" >
  <crystal>
   <varray name="basis" >
    <v>      11.59819984       0.00000000       0.00000000 </v>
    <v>      -5.79909992      10.04433570       0.00000000 </v>
    <v>       0.00000000       0.00000000      21.04820061 </v>
   </varray>
   <i name="volume">   2452.03565684 </i>
   <varray name="rec_basis" >
    <v>       0.08622028       0.04977930       0.00000000 </v>
    <v>       0.00000000       0.09955860       0.00000000 </v>
    <v>       0.00000000       0.00000000       0.04751000 </v>
   </varray>
  </crystal>
  <varray name="positions" >
   <v>       0.00000000       0.00000000       0.45993000 </v>
   <v>       0.22222000       0.11111000       0.30996000 </v>
   <v>       0.33333000       0.00000000       0.45993000 </v>
   <v>       0.55556000       0.11111000       0.30996000 </v>
   <v>       0.66667000       0.00000000       0.45993000 </v>
   <v>       0.88889000       0.11111000       0.30996000 </v>
   <v>       0.00000000       0.33333000       0.45993000 </v>
   <v>       0.22222000       0.44444000       0.30996000 </v>
   <v>       0.33333000       0.33333000       0.45993000 </v>
   <v>       0.55556000       0.44444000       0.30996000 </v>
   <v>       0.66667000       0.33333000       0.45993000 </v>
   <v>       0.88889000       0.44444000       0.30996000 </v>
   <v>       0.00000000       0.66667000       0.45993000 </v>
   <v>       0.22222000       0.77778000       0.30996000 </v>
   <v>       0.33333000       0.66667000       0.45993000 </v>
   <v>       0.55556000       0.77778000       0.30996000 </v>
   <v>       0.66667000       0.66667000       0.45993000 </v>
   <v>       0.88889000       0.77778000       0.30996000 </v>
   <v>       0.00000000       0.00000000       0.57241000 </v>
   <v>       0.11111000       0.22222000       0.27247000 </v>
   <v>       0.22222000       0.11111000       0.42244000 </v>
   <v>       0.11111000       0.22222000       0.49742000 </v>
   <v>       0.00000000       0.00000000       0.34745000 </v>
   <v>       0.33333000       0.00000000       0.57241000 </v>
   <v>       0.44444000       0.22222000       0.27247000 </v>
   <v>       0.55556000       0.11111000       0.42244000 </v>
   <v>       0.44444000       0.22222000       0.49742000 </v>
   <v>       0.33333000       0.00000000       0.34745000 </v>
   <v>       0.66667000       0.00000000       0.57241000 </v>
   <v>       0.77778000       0.22222000       0.27247000 </v>
   <v>       0.88889000       0.11111000       0.42244000 </v>
   <v>       0.77778000       0.22222000       0.49742000 </v>
   <v>       0.66667000       0.00000000       0.34745000 </v>
   <v>       0.00000000       0.33333000       0.57241000 </v>
   <v>       0.11111000       0.55556000       0.27247000 </v>
   <v>       0.22222000       0.44444000       0.42244000 </v>
   <v>       0.11111000       0.55556000       0.49742000 </v>
   <v>       0.00000000       0.33333000       0.34745000 </v>
   <v>       0.33333000       0.33333000       0.57241000 </v>
   <v>       0.44444000       0.55556000       0.27247000 </v>
   <v>       0.55556000       0.44444000       0.42244000 </v>
   <v>       0.44444000       0.55556000       0.49742000 </v>
   <v>       0.33333000       0.33333000       0.34745000 </v>
   <v>       0.66667000       0.33333000       0.57241000 </v>
   <v>       0.77778000       0.55556000       0.27247000 </v>
   <v>       0.88889000       0.44444000       0.42244000 </v>
   <v>       0.77778000       0.55556000       0.49742000 </v>
   <v>       0.66667000       0.33333000       0.34745000 </v>
   <v>       0.00000000       0.66667000       0.57241000 </v>
   <v>       0.11111000       0.88889000       0.27247000 </v>
   <v>       0.22222000       0.77778000       0.42244000 </v>
   <v>       0.11111000       0.88889000       0.49742000 </v>
   <v>       0.00000000       0.66667000       0.34745000 </v>
   <v>       0.33333000       0.66667000       0.57241000 </v>
   <v>       0.44444000       0.88889000       0.27247000 </v>
   <v>       0.55556000       0.77778000       0.42244000 </v>
   <v>       0.44444000       0.88889000       0.49742000 </v>
   <v>       0.33333000       0.66667000       0.34745000 </v>
   <v>       0.66667000       0.66667000       0.57241000 </v>
   <v>       0.77778000       0.88889000       0.27247000 </v>
   <v>       0.88889000       0.77778000       0.42244000 </v>
   <v>       0.77778000       0.88889000       0.49742000 </v>
   <v>       0.66667000       0.66667000       0.34745000 </v>
   <v>       0.41995000       0.90566000       0.63222000 </v>
   <v>       0.56244000       0.76382000       0.64172000 </v>
   <v>       0.55931000       0.77277000       0.51616000 </v>
   <v>       0.42431000       0.57633000       0.63422000 </v>
   <v>       0.55313000       0.44676000       0.64709000 </v>
   <v>       0.56544000       0.43664000       0.51651000 </v>
   <v>       0.49197000       0.83062000       0.57349000 </v>
   <v>       0.49190000       0.50494000       0.57828000 </v>
  </varray>
 </structure>
 <calculation>
  <scstep>
   <time name="dav">    1.70    1.72</time>
   <time name="total">    2.85    2.88</time>
   <energy>
    <i name="alphaZ">   1011.17032867 </i>
    <i name="ewald"> 123827.45758914 </i>
    <i name="hartreedc">-161599.89990319 </i>
    <i name="XCdc">   1466.58854679 </i>
    <i name="pawpsdc">  34088.29200945 </i>
    <i name="pawaedc"> -33649.72740068 </i>
    <i name="eentropy">     -0.00545253 </i>
    <i name="bandstr">   2113.52558154 </i>
    <i name="atom">  42305.93172720 </i>
    <i name="e_fr_energy">   9563.33302639 </i>
    <i name="e_wo_entrp">   9563.33847892 </i>
    <i name="e_0_energy">   9563.33575266 </i>
   </energy>
  </scstep>
  <scstep>
   <time name="dav">    1.87    1.87</time>
   <time name="total">    1.87    1.87</time>
   <energy>
    <i name="e_fr_energy">   2606.08498290 </i>
    <i name="e_wo_entrp">   2606.20648304 </i>
    <i name="e_0_energy">   2606.14573297 </i>
   </energy>
  </scstep>
  <scstep>
   <time name="dav">    2.17    2.17</time>
   <time name="total">    2.17    2.17</time>
   <energy>
    <i name="e_fr_energy">   -276.61537409 </i>
    <i name="e_wo_entrp">   -276.61521011 </i>
    <i name="e_0_energy">   -276.61529210 </i>
   </energy>
  </scstep>
  <scstep>
   <time name="dav">    2.08    2.08</time>
   <time name="total">    2.08    2.08</time>
   <energy>
    <i name="e_fr_energy">   -631.98760708 </i>
    <i name="e_wo_entrp">   -631.94628143 </i>
    <i name="e_0_energy">   -631.96694426 </i>
   </energy>
  </scstep>
  <scstep>
   <time name="dav">    2.38    2.38</time>
   <time name="total">    3.06    3.07</time>
   <energy>
    <i name="e_fr_energy">   -648.30104244 </i>
    <i name="e_wo_entrp">   -648.23797182 </i>
    <i name="e_0_energy">   -648.26950713 </i>
   </energy>
  </scstep>
  <scstep>
   <time name="dav">    2.16    2.16</time>
   <time name="total">    3.86    3.86</time>
   <energy>
    <i name="e_fr_energy">   -576.56044015 </i>
    <i name="e_wo_entrp">   -576.40645078 </i>
    <i name="e_0_energy">   -576.48344546 </i>
   </energy>
  </scstep>
  <scstep>
   <time name="dav">    2.26    2.26</time>
   <time name="total">    3.95    3.96</time>
   <energy>
    <i name="e_fr_energy">   -483.59946626 </i>
    <i name="e_wo_entrp">   -483.52595697 </i>
    <i name="e_0_energy">   -483.56271162 </i>
   </energy>
  </scstep>
  <scstep>
   <time name="dav">    2.46    2.46</time>
   <time name="total">    4.11    4.11</time>
   <energy>
    <i name="e_fr_energy">   -559.41680605 </i>
    <i name="e_wo_entrp">   -559.16486907 </i>
    <i name="e_0_energy">   -559.29083756 </i>
   </energy>
  </scstep>
  <scstep>
   <time name="dav">    2.36    2.36</time>
   <time name="total">    4.00    4.00</time>
   <energy>
    <i name="e_fr_energy">   -508.40835727 </i>
    <i name="e_wo_entrp">   -508.34556962 </i>
    <i name="e_0_energy">   -508.37696345 </i>
   </energy>
  </scstep>
  <scstep>
   <time name="dav">    2.27    2.27</time>
   <time name="total">    3.94    3.94</time>
   <energy>
    <i name="e_fr_energy">   -506.41239280 </i>
    <i name="e_wo_entrp">   -506.38632752 </i>
    <i name="e_0_energy">   -506.39936016 </i>
   </energy>
  </scstep>
  <scstep>
   <time name="dav">    2.33    2.33</time>
   <time name="total">    4.00    4.00</time>
   <energy>
    <i name="e_fr_energy">   -509.15069587 </i>
    <i name="e_wo_entrp">   -509.13762560 </i>
    <i name="e_0_energy">   -509.14416073 </i>
   </energy>
  </scstep>
  <scstep>
   <time name="dav">    2.07    2.08</time>
   <time name="total">    3.74    3.74</time>
   <energy>
    <i name="e_fr_energy">   -493.99755928 </i>
    <i name="e_wo_entrp">   -493.94075059 </i>
    <i name="e_0_energy">   -493.96915493 </i>
   </energy>
  </scstep>
  <scstep>
   <time name="dav">    2.23    2.23</time>
   <time name="total">    3.90    3.91</time>
   <energy>
    <i name="e_fr_energy">   -484.85359794 </i>
    <i name="e_wo_entrp">   -484.79483744 </i>
    <i name="e_0_energy">   -484.82421769 </i>
   </energy>
  </scstep>
  <scstep>
   <time name="dav">    2.12    2.12</time>
   <time name="total">    3.76    3.76</time>
   <energy>
    <i name="e_fr_energy">   -481.72884820 </i>
    <i name="e_wo_entrp">   -481.69414398 </i>
    <i name="e_0_energy">   -481.71149609 </i>
   </energy>
  </scstep>
  <scstep>
   <time name="dav">    2.14    2.14</time>
   <time name="total">    3.80    3.81</time>
   <energy>
    <i name="e_fr_energy">   -480.71345358 </i>
    <i name="e_wo_entrp">   -480.66438932 </i>
    <i name="e_0_energy">   -480.68892145 </i>
   </energy>
  </scstep>
  <scstep>
   <time name="dav">    2.46    2.46</time>
   <time name="total">    4.12    4.12</time>
   <energy>
    <i name="e_fr_energy">   -481.06889653 </i>
    <i name="e_wo_entrp">   -481.00324891 </i>
    <i name="e_0_energy">   -481.03607272 </i>
   </energy>
  </scstep>
  <scstep>
   <time name="dav">    2.45    2.46</time>
   <time name="total">    4.13    4.13</time>
   <energy>
    <i name="e_fr_energy">   -481.69908467 </i>
    <i name="e_wo_entrp">   -481.69096334 </i>
    <i name="e_0_energy">   -481.69502400 </i>
   </energy>
  </scstep>
  <scstep>
   <time name="dav">    2.31    2.31</time>
   <time name="total">    3.95    3.96</time>
   <energy>
    <i name="e_fr_energy">   -483.34575911 </i>
    <i name="e_wo_entrp">   -483.32178903 </i>
    <i name="e_0_energy">   -483.33377407 </i>
   </energy>
  </scstep>
  <scstep>
   <time name="dav">    2.34    2.34</time>
   <time name="total">    4.00    4.00</time>
   <energy>
    <i name="e_fr_energy">   -485.08249716 </i>
    <i name="e_wo_entrp">   -485.06387415 </i>
    <i name="e_0_energy">   -485.07318566 </i>
   </energy>
  </scstep>
  <scstep>
   <time name="dav">    2.19    2.19</time>
   <time name="total">    3.84    3.84</time>
   <energy>
    <i name="e_fr_energy">   -486.55773369 </i>
    <i name="e_wo_entrp">   -486.53137782 </i>
    <i name="e_0_energy">   -486.54455576 </i>
   </energy>
  </scstep>
  <scstep>
   <time name="dav">    2.22    2.22</time>
   <time name="total">    3.87    3.87</time>
   <energy>
    <i name="e_fr_energy">   -488.42637976 </i>
    <i name="e_wo_entrp">   -488.40083176 </i>
    <i name="e_0_energy">   -488.41360576 </i>
   </energy>
  </scstep>
  <scstep>
   <time name="dav">    2.30    2.30</time>
   <time name="total">    3.95    3.96</time>
   <energy>
    <i name="e_fr_energy">   -490.29177139 </i>
    <i name="e_wo_entrp">   -490.28551386 </i>
    <i name="e_0_energy">   -490.28864262 </i>
   </energy>
  </scstep>
  <scstep>
   <time name="dav">    2.30    2.30</time>
   <time name="total">    3.93    3.93</time>
   <energy>
    <i name="e_fr_energy">   -491.36969084 </i>
    <i name="e_wo_entrp">   -491.36773156 </i>
    <i name="e_0_energy">   -491.36871120 </i>
   </energy>
  </scstep>
  <scstep>
   <time name="dav">    2.30    2.30</time>
   <time name="total">    3.96    3.96</time>
   <energy>
    <i name="e_fr_energy">   -493.06528637 </i>
    <i name="e_wo_entrp">   -493.06465061 </i>
    <i name="e_0_energy">   -493.06496849 </i>
   </energy>
  </scstep>
  <scstep>
   <time name="dav">    2.33    2.34</time>
   <time name="total">    3.98    3.98</time>
   <energy>
    <i name="e_fr_energy">   -494.04278023 </i>
    <i name="e_wo_entrp">   -494.04236353 </i>
    <i name="e_0_energy">   -494.04257188 </i>
   </energy>
  </scstep>
  <scstep>
   <time name="dav">    2.42    2.42</time>
   <time name="total">    4.12    4.12</time>
   <energy>
    <i name="e_fr_energy">   -495.15986635 </i>
    <i name="e_wo_entrp">   -495.15933950 </i>
    <i name="e_0_energy">   -495.15960293 </i>
   </energy>
  </scstep>
  <scstep>
   <time name="dav">    2.26    2.26</time>
   <time name="total">    3.93    3.94</time>
   <energy>
    <i name="e_fr_energy">   -495.89833716 </i>
    <i name="e_wo_entrp">   -495.89798708 </i>
    <i name="e_0_energy">   -495.89816212 </i>
   </energy>
  </scstep>
  <scstep>
   <time name="dav">    2.19    2.19</time>
   <time name="total">    3.84    3.84</time>
   <energy>
    <i name="e_fr_energy">   -496.51606382 </i>
    <i name="e_wo_entrp">   -496.51568649 </i>
    <i name="e_0_energy">   -496.51587515 </i>
   </energy>
  </scstep>
  <scstep>
   <time name="dav">    2.34    2.34</time>
   <time name="total">    4.01    4.01</time>
   <energy>
    <i name="e_fr_energy">   -496.87328877 </i>
    <i name="e_wo_entrp">   -496.87291879 </i>
    <i name="e_0_energy">   -496.87310378 </i>
   </energy>
  </scstep>
  <scstep>
   <time name="dav">    2.19    2.19</time>
   <time name="total">    3.84    3.84</time>
   <energy>
    <i name="e_fr_energy">   -497.23140483 </i>
    <i name="e_wo_entrp">   -497.23107995 </i>
    <i name="e_0_energy">   -497.23124239 </i>
   </energy>
  </scstep>
  <scstep>
   <time name="dav">    2.15    2.15</time>
   <time name="total">    3.79    3.79</time>
   <energy>
    <i name="e_fr_energy">   -497.48332765 </i>
    <i name="e_wo_entrp">   -497.48303000 </i>
    <i name="e_0_energy">   -497.48317883 </i>
   </energy>
  </scstep>
  <scstep>
   <time name="dav">    2.19    2.19</time>
   <time name="total">    3.84    3.84</time>
   <energy>
    <i name="e_fr_energy">   -497.62723037 </i>
    <i name="e_wo_entrp">   -497.62696598 </i>
    <i name="e_0_energy">   -497.62709817 </i>
   </energy>
  </scstep>
  <scstep>
   <time name="dav">    2.34    2.34</time>
   <time name="total">    4.00    4.00</time>
   <energy>
    <i name="e_fr_energy">   -497.69972010 </i>
    <i name="e_wo_entrp">   -497.69943672 </i>
    <i name="e_0_energy">   -497.69957841 </i>
   </energy>
  </scstep>
  <scstep>
   <time name="dav">    2.30    2.30</time>
   <time name="total">    3.94    3.94</time>
   <energy>
    <i name="e_fr_energy">   -497.74890421 </i>
    <i name="e_wo_entrp">   -497.74862024 </i>
    <i name="e_0_energy">   -497.74876222 </i>
   </energy>
  </scstep>
  <scstep>
   <time name="dav">    2.22    2.23</time>
   <time name="total">    3.90    3.91</time>
   <energy>
    <i name="e_fr_energy">   -497.82349346 </i>
    <i name="e_wo_entrp">   -497.82319158 </i>
    <i name="e_0_energy">   -497.82334252 </i>
   </energy>
  </scstep>
  <scstep>
   <time name="dav">    2.19    2.19</time>
   <time name="total">    3.83    3.84</time>
   <energy>
    <i name="e_fr_energy">   -497.92686676 </i>
    <i name="e_wo_entrp">   -497.92654882 </i>
    <i name="e_0_energy">   -497.92670779 </i>
   </energy>
  </scstep>
  <scstep>
   <time name="dav">    2.34    2.34</time>
   <time name="total">    3.98    3.98</time>
   <energy>
    <i name="e_fr_energy">   -497.99257337 </i>
    <i name="e_wo_entrp">   -497.99224137 </i>
    <i name="e_0_energy">   -497.99240737 </i>
   </energy>
  </scstep>
  <scstep>
   <time name="dav">    2.22    2.22</time>
   <time name="total">    3.89    3.89</time>
   <energy>
    <i name="e_fr_energy">   -498.01611761 </i>
    <i name="e_wo_entrp">   -498.01577691 </i>
    <i name="e_0_energy">   -498.01594726 </i>
   </energy>
  </scstep>
  <scstep>
   <time name="dav">    2.30    2.30</time>
   <time name="total">    3.93    3.93</time>
   <energy>
    <i name="e_fr_energy">   -498.02588152 </i>
    <i name="e_wo_entrp">   -498.02554298 </i>
    <i name="e_0_energy">   -498.02571225 </i>
   </energy>
  </scstep>
  <scstep>
   <time name="dav">    2.18    2.18</time>
   <time name="total">    3.84    3.84</time>
   <energy>
    <i name="e_fr_energy">   -498.03989021 </i>
    <i name="e_wo_entrp">   -498.03954641 </i>
    <i name="e_0_energy">   -498.03971831 </i>
   </energy>
  </scstep>
  <scstep>
   <time name="dav">    2.24    2.24</time>
   <time name="total">    3.89    3.89</time>
   <energy>
    <i name="e_fr_energy">   -498.04369260 </i>
    <i name="e_wo_entrp">   -498.04334858 </i>
    <i name="e_0_energy">   -498.04352059 </i>
   </energy>
  </scstep>
  <scstep>
   <time name="dav">    2.23    2.23</time>
   <time name="total">    3.88    3.88</time>
   <energy>
    <i name="e_fr_energy">   -498.04511930 </i>
    <i name="e_wo_entrp">   -498.04477279 </i>
    <i name="e_0_energy">   -498.04494605 </i>
   </energy>
  </scstep>
  <scstep>
   <time name="dav">    2.37    2.37</time>
   <time name="total">    4.04    4.04</time>
   <energy>
    <i name="e_fr_energy">   -498.04558930 </i>
    <i name="e_wo_entrp">   -498.04524214 </i>
    <i name="e_0_energy">   -498.04541572 </i>
   </energy>
  </scstep>
  <scstep>
   <time name="dav">    2.18    2.18</time>
   <time name="total">    3.84    3.85</time>
   <energy>
    <i name="e_fr_energy">   -498.04636032 </i>
    <i name="e_wo_entrp">   -498.04601375 </i>
    <i name="e_0_energy">   -498.04618703 </i>
   </energy>
  </scstep>
  <scstep>
   <time name="dav">    2.26    2.26</time>
   <time name="total">    3.91    3.91</time>
   <energy>
    <i name="e_fr_energy">   -498.04696527 </i>
    <i name="e_wo_entrp">   -498.04661672 </i>
    <i name="e_0_energy">   -498.04679099 </i>
   </energy>
  </scstep>
  <scstep>
   <time name="dav">    2.38    2.38</time>
   <time name="total">    4.06    4.07</time>
   <energy>
    <i name="e_fr_energy">   -498.04769133 </i>
    <i name="e_wo_entrp">   -498.04734225 </i>
    <i name="e_0_energy">   -498.04751679 </i>
   </energy>
  </scstep>
  <scstep>
   <time name="dav">    2.19    2.19</time>
   <time name="total">    3.84    3.85</time>
   <energy>
    <i name="e_fr_energy">   -498.04790901 </i>
    <i name="e_wo_entrp">   -498.04755955 </i>
    <i name="e_0_energy">   -498.04773428 </i>
   </energy>
  </scstep>
  <scstep>
   <time name="dav">    2.22    2.22</time>
   <time name="total">    3.89    3.90</time>
   <energy>
    <i name="e_fr_energy">   -498.04819347 </i>
    <i name="e_wo_entrp">   -498.04784393 </i>
    <i name="e_0_energy">   -498.04801870 </i>
   </energy>
  </scstep>
  <scstep>
   <time name="dav">    2.07    2.07</time>
   <time name="total">    3.73    3.73</time>
   <energy>
    <i name="e_fr_energy">   -498.04846269 </i>
    <i name="e_wo_entrp">   -498.04811244 </i>
    <i name="e_0_energy">   -498.04828756 </i>
   </energy>
  </scstep>
  <scstep>
   <time name="dav">    1.76    1.76</time>
   <time name="total">    3.42    3.42</time>
   <energy>
    <i name="e_fr_energy">   -498.04862190 </i>
    <i name="e_wo_entrp">   -498.04827143 </i>
    <i name="e_0_energy">   -498.04844666 </i>
   </energy>
  </scstep>
  <scstep>
   <time name="dav">    2.13    2.13</time>
   <time name="total">    3.78    3.79</time>
   <energy>
    <i name="e_fr_energy">   -498.04859299 </i>
    <i name="e_wo_entrp">   -498.04824250 </i>
    <i name="e_0_energy">   -498.04841775 </i>
   </energy>
  </scstep>
  <scstep>
   <time name="dav">    1.81    1.81</time>
   <time name="total">    3.45    3.45</time>
   <energy>
    <i name="e_fr_energy">   -498.04868275 </i>
    <i name="e_wo_entrp">   -498.04833195 </i>
    <i name="e_0_energy">   -498.04850735 </i>
   </energy>
  </scstep>
  <scstep>
   <time name="dav">    1.55    1.55</time>
   <time name="total">    3.21    3.22</time>
   <energy>
    <i name="e_fr_energy">   -498.04876596 </i>
    <i name="e_wo_entrp">   -498.04841526 </i>
    <i name="e_0_energy">   -498.04859061 </i>
   </energy>
  </scstep>
  <scstep>
   <time name="dav">    1.45    1.45</time>
   <time name="total">    3.11    3.11</time>
   <energy>
    <i name="e_fr_energy">   -498.04880593 </i>
    <i name="e_wo_entrp">   -498.04845530 </i>
    <i name="e_0_energy">   -498.04863062 </i>
   </energy>
  </scstep>
  <scstep>
   <time name="dav">    1.24    1.24</time>
   <time name="total">    2.88    2.88</time>
   <energy>
    <i name="e_fr_energy">   -498.04881647 </i>
    <i name="e_wo_entrp">   -498.04846586 </i>
    <i name="e_0_energy">   -498.04864117 </i>
   </energy>
  </scstep>
  <scstep>
   <time name="dav">    1.28    1.28</time>
   <time name="total">    2.94    2.94</time>
   <energy>
    <i name="e_fr_energy">   -498.04882763 </i>
    <i name="e_wo_entrp">   -498.04847704 </i>
    <i name="e_0_energy">   -498.04865234 </i>
   </energy>
  </scstep>
  <scstep>
   <time name="dav">    1.44    1.44</time>
   <time name="total">    3.09    3.09</time>
   <energy>
    <i name="e_fr_energy">   -498.04884298 </i>
    <i name="e_wo_entrp">   -498.04849243 </i>
    <i name="e_0_energy">   -498.04866770 </i>
   </energy>
  </scstep>
  <scstep>
   <time name="dav">    1.27    1.27</time>
   <time name="total">    2.94    2.94</time>
   <energy>
    <i name="e_fr_energy">   -498.04885186 </i>
    <i name="e_wo_entrp">   -498.04850137 </i>
    <i name="e_0_energy">   -498.04867662 </i>
   </energy>
  </scstep>
  <scstep>
   <time name="dav">    1.38    1.38</time>
   <time name="total">    3.05    3.05</time>
   <energy>
    <i name="e_fr_energy">   -498.04886006 </i>
    <i name="e_wo_entrp">   -498.04850963 </i>
    <i name="e_0_energy">   -498.04868484 </i>
   </energy>
  </scstep>
  <scstep>
   <time name="dav">    1.27    1.27</time>
   <time name="total">    2.92    2.92</time>
   <energy>
    <i name="e_fr_energy">   -498.04886492 </i>
    <i name="e_wo_entrp">   -498.04851452 </i>
    <i name="e_0_energy">   -498.04868972 </i>
   </energy>
  </scstep>
  <scstep>
   <time name="dav">    1.25    1.25</time>
   <time name="total">    2.89    2.90</time>
   <energy>
    <i name="e_fr_energy">   -498.04886661 </i>
    <i name="e_wo_entrp">   -498.04851624 </i>
    <i name="e_0_energy">   -498.04869142 </i>
   </energy>
  </scstep>
  <scstep>
   <time name="dav">    1.24    1.24</time>
   <time name="total">    2.89    2.89</time>
   <energy>
    <i name="e_fr_energy">   -498.04886837 </i>
    <i name="e_wo_entrp">   -498.04851800 </i>
    <i name="e_0_energy">   -498.04869318 </i>
   </energy>
  </scstep>
  <scstep>
   <time name="dav">    1.13    1.13</time>
   <time name="total">    2.79    2.80</time>
   <energy>
    <i name="e_fr_energy">   -498.04886958 </i>
    <i name="e_wo_entrp">   -498.04851920 </i>
    <i name="e_0_energy">   -498.04869439 </i>
   </energy>
  </scstep>
  <scstep>
   <time name="dav">    1.13    1.13</time>
   <time name="total">    2.19    2.19</time>
   <energy>
    <i name="alphaZ">   1011.17032867 </i>
    <i name="ewald"> 123827.45758914 </i>
    <i name="hartreedc">-162898.84953341 </i>
    <i name="XCdc">   1512.39020641 </i>
    <i name="pawpsdc">  40465.51087565 </i>
    <i name="pawaedc"> -39992.62963921 </i>
    <i name="eentropy">     -0.00035038 </i>
    <i name="bandstr">  -6729.03007429 </i>
    <i name="atom">  42305.93172720 </i>
    <i name="e_fr_energy">   -498.04887023 </i>
    <i name="e_wo_entrp">   -498.04851984 </i>
    <i name="e_0_energy">   -498.04869503 </i>
   </energy>
  </scstep>
  <structure>
   <crystal>
    <varray name="basis" >
     <v>      11.59819984       0.00000000       0.00000000 </v>
     <v>      -5.79909992      10.04433570       0.00000000 </v>
     <v>       0.00000000       0.00000000      21.04820061 </v>
    </varray>
    <i name="volume">   2452.03565684 </i>
    <varray name="rec_basis" >
     <v>       0.08622028       0.04977930       0.00000000 </v>
     <v>       0.00000000       0.09955860       0.00000000 </v>
     <v>       0.00000000       0.00000000       0.04751000 </v>
    </varray>
   </crystal>
   <varray name="positions" >
    <v>       0.00000000       0.00000000       0.45993000 </v>
    <v>       0.22222000       0.11111000       0.30996000 </v>
    <v>       0.33333000       0.00000000       0.45993000 </v>
    <v>       0.55556000       0.11111000       0.30996000 </v>
    <v>       0.66667000       0.00000000       0.45993000 </v>
    <v>       0.88889000       0.11111000       0.30996000 </v>
    <v>       0.00000000       0.33333000       0.45993000 </v>
    <v>       0.22222000       0.44444000       0.30996000 </v>
    <v>       0.33333000       0.33333000       0.45993000 </v>
    <v>       0.55556000       0.44444000       0.30996000 </v>
    <v>       0.66667000       0.33333000       0.45993000 </v>
    <v>       0.88889000       0.44444000       0.30996000 </v>
    <v>       0.00000000       0.66667000       0.45993000 </v>
    <v>       0.22222000       0.77778000       0.30996000 </v>
    <v>       0.33333000       0.66667000       0.45993000 </v>
    <v>       0.55556000       0.77778000       0.30996000 </v>
    <v>       0.66667000       0.66667000       0.45993000 </v>
    <v>       0.88889000       0.77778000       0.30996000 </v>
    <v>       0.00000000       0.00000000       0.57241000 </v>
    <v>       0.11111000       0.22222000       0.27247000 </v>
    <v>       0.22222000       0.11111000       0.42244000 </v>
    <v>       0.11111000       0.22222000       0.49742000 </v>
    <v>       0.00000000       0.00000000       0.34745000 </v>
    <v>       0.33333000       0.00000000       0.57241000 </v>
    <v>       0.44444000       0.22222000       0.27247000 </v>
    <v>       0.55556000       0.11111000       0.42244000 </v>
    <v>       0.44444000       0.22222000       0.49742000 </v>
    <v>       0.33333000       0.00000000       0.34745000 </v>
    <v>       0.66667000       0.00000000       0.57241000 </v>
    <v>       0.77778000       0.22222000       0.27247000 </v>
    <v>       0.88889000       0.11111000       0.42244000 </v>
    <v>       0.77778000       0.22222000       0.49742000 </v>
    <v>       0.66667000       0.00000000       0.34745000 </v>
    <v>       0.00000000       0.33333000       0.57241000 </v>
    <v>       0.11111000       0.55556000       0.27247000 </v>
    <v>       0.22222000       0.44444000       0.42244000 </v>
    <v>       0.11111000       0.55556000       0.49742000 </v>
    <v>       0.00000000       0.33333000       0.34745000 </v>
    <v>       0.33333000       0.33333000       0.57241000 </v>
    <v>       0.44444000       0.55556000       0.27247000 </v>
    <v>       0.55556000       0.44444000       0.42244000 </v>
    <v>       0.44444000       0.55556000       0.49742000 </v>
    <v>       0.33333000       0.33333000       0.34745000 </v>
    <v>       0.66667000       0.33333000       0.57241000 </v>
    <v>       0.77778000       0.55556000       0.27247000 </v>
    <v>       0.88889000       0.44444000       0.42244000 </v>
    <v>       0.77778000       0.55556000       0.49742000 </v>
    <v>       0.66667000       0.33333000       0.34745000 </v>
    <v>       0.00000000       0.66667000       0.57241000 </v>
    <v>       0.11111000       0.88889000       0.27247000 </v>
    <v>       0.22222000       0.77778000       0.42244000 </v>
    <v>       0.11111000       0.88889000       0.49742000 </v>
    <v>       0.00000000       0.66667000       0.34745000 </v>
    <v>       0.33333000       0.66667000       0.57241000 </v>
    <v>       0.44444000       0.88889000       0.27247000 </v>
    <v>       0.55556000       0.77778000       0.42244000 </v>
    <v>       0.44444000       0.88889000       0.49742000 </v>
    <v>       0.33333000       0.66667000       0.34745000 </v>
    <v>       0.66667000       0.66667000       0.57241000 </v>
    <v>       0.77778000       0.88889000       0.27247000 </v>
    <v>       0.88889000       0.77778000       0.42244000 </v>
    <v>       0.77778000       0.88889000       0.49742000 </v>
    <v>       0.66667000       0.66667000       0.34745000 </v>
    <v>       0.41995000       0.90566000       0.63222000 </v>
    <v>       0.56244000       0.76382000       0.64172000 </v>
    <v>       0.55931000       0.77277000       0.51616000 </v>
    <v>       0.42431000       0.57633000       0.63422000 </v>
    <v>       0.55313000       0.44676000       0.64709000 </v>
    <v>       0.56544000       0.43664000       0.51651000 </v>
    <v>       0.49197000       0.83062000       0.57349000 </v>
    <v>       0.49190000       0.50494000       0.57828000 </v>
   </varray>
  </structure>
  <varray name="forces" >
   <v>      -0.23571912       0.11375359       0.33965315 </v>
   <v>      -0.08220959      -0.09848385      -0.17614624 </v>
   <v>      -0.80683336       0.40685178       0.15902302 </v>
   <v>       0.01761154       0.09170524      -0.19197230 </v>
   <v>       1.51611219       1.50665708      -0.21381982 </v>
   <v>       0.06563009       0.08001102      -0.05295185 </v>
   <v>      -0.24527005      -0.12035333       0.44024746 </v>
   <v>      -0.17749892      -0.14026359      -0.24722402 </v>
   <v>      -0.62837491      -1.85632516      -0.24089755 </v>
   <v>       0.10405092      -0.09150800      -0.48910215 </v>
   <v>       0.85088764      -0.41411693       0.20769646 </v>
   <v>       0.04152231      -0.02046209      -0.05142642 </v>
   <v>       0.11647922      -0.08996038       0.23127163 </v>
   <v>      -0.16742265      -0.00748187      -0.27504773 </v>
   <v>      -1.63962541      -1.33658263      -1.01771234 </v>
   <v>       0.00120170       0.12367245      -0.56573927 </v>
   <v>       1.62708474       1.26878590      -0.06115657 </v>
   <v>       0.14647727       0.09508067      -0.12874512 </v>
   <v>      -0.02523646       0.02294257       0.06880150 </v>
   <v>       0.04402176       0.04991446       0.01713885 </v>
   <v>       0.10775277       0.12974762      -0.30447409 </v>
   <v>      -0.07404319      -0.01745207      -0.20387524 </v>
   <v>       0.01791237      -0.01345805      -0.03112563 </v>
   <v>       0.15560649      -0.16669789       0.60993484 </v>
   <v>      -0.00740967       0.03506172       0.02004929 </v>
   <v>      -0.06316995      -0.31451795      -0.22977628 </v>
   <v>      -0.08367108      -1.06782275      -0.35456194 </v>
   <v>       0.01705217      -0.01873929       0.15385989 </v>
   <v>      -0.79132706      -1.13462965       0.15227156 </v>
   <v>      -0.03701066      -0.03231165       0.01650868 </v>
   <v>      -0.10914804      -0.07234294      -0.43767807 </v>
   <v>      -0.02933910       0.08330145      -0.18580590 </v>
   <v>      -0.03635049      -0.12146646       0.17303284 </v>
   <v>      -0.01875931      -0.01690788       0.03932311 </v>
   <v>       0.06883658       0.03733386       0.02165253 </v>
   <v>       0.32372383       0.32905505      -0.18827324 </v>
   <v>       0.00238751       0.10161141      -0.24178328 </v>
   <v>       0.05905190       0.03759074      -0.03807008 </v>
   <v>       0.07556439       1.20425754      -0.24190330 </v>
   <v>       0.01839670       0.02917378       0.03192643 </v>
   <v>      -0.57197176       0.33816560      -3.08767068 </v>
   <v>      -1.10801487      -0.68083036      -0.07240958 </v>
   <v>       0.06895607       0.07318555       0.23930949 </v>
   <v>       0.22791702      -0.12435075       0.31624676 </v>
   <v>      -0.08576333       0.00316488       0.02276871 </v>
   <v>      -0.06518846       0.08605517      -0.39488809 </v>
   <v>       0.84422291       0.59290859      -0.29908841 </v>
   <v>      -0.14558547       0.03241686       0.03112640 </v>
   <v>       0.03836461       0.01232214       0.05882085 </v>
   <v>       0.02915777      -0.00343082       0.01397183 </v>
   <v>       0.27016806       0.12517555      -0.15263987 </v>
   <v>       0.15028245      -0.04572982       0.05489796 </v>
   <v>       0.02548414       0.03964967       0.01844125 </v>
   <v>       0.00147388       0.20772596       0.29204393 </v>
   <v>       0.04006026      -0.04751126       0.03242546 </v>
   <v>      -0.53508214      -0.02968360      -3.20284541 </v>
   <v>      -1.67515492       0.75916277      -0.88288389 </v>
   <v>       0.08315251       0.02399071       0.36930399 </v>
   <v>      -1.54383982      -1.12296959       0.22432078 </v>
   <v>      -0.07083180      -0.07829858       0.02151243 </v>
   <v>      -0.10398537      -0.16178017      -0.34262790 </v>
   <v>       0.93122119       0.74707830      -0.58958983 </v>
   <v>      -0.15532972      -0.00924478       0.29001106 </v>
   <v>       1.47754529      -0.69274542      -2.22825805 </v>
   <v>      -1.47461817      -0.12739657      -0.94383201 </v>
   <v>       2.61857169      -1.11868481       0.78461930 </v>
   <v>       0.12418258       0.80313607      -0.13723039 </v>
   <v>      -0.95254566       0.47187926      -1.17167488 </v>
   <v>       0.27178776      -0.28872449       3.00123886 </v>
   <v>      -1.80057922       3.14295189       7.51817158 </v>
   <v>       2.96699743      -1.52221150       3.70328554 </v>
  </varray>
  <varray name="stress" >
   <v>      -8.42526766      -1.94117321      -0.93697878 </v>
   <v>      -1.94117029      -7.22685161       0.69474514 </v>
   <v>      -0.93679750       0.69463707      15.79654924 </v>
  </varray>
  <energy>
   <i name="e_fr_energy">   -498.04887023 </i>
   <i name="e_wo_entrp">   -498.04851984 </i>
   <i name="e_0_energy">   -498.04869503 </i>
  </energy>
  <time name="totalsc">  241.98  242.18</time>
 </calculation>
 <calculation>
  <scstep>
   <time name="dav">    1.63    1.63</time>
   <time name="total">    3.32    3.33</time>
   <energy>
    <i name="alphaZ">   1011.17032867 </i>
    <i name="ewald"> 122829.15194079 </i>
    <i name="hartreedc">-161880.95541953 </i>
    <i name="XCdc">   1512.36850936 </i>
    <i name="pawpsdc">  40465.51114850 </i>
    <i name="pawaedc"> -39992.62993882 </i>
    <i name="eentropy">     -0.01595215 </i>
    <i name="bandstr">  -6740.98765744 </i>
    <i name="atom">  42305.93172720 </i>
    <i name="e_fr_energy">   -490.45531342 </i>
    <i name="e_wo_entrp">   -490.43936127 </i>
    <i name="e_0_energy">   -490.44733735 </i>
   </energy>
  </scstep>
  <scstep>
   <time name="dav">    2.14    2.14</time>
   <time name="total">    3.80    3.80</time>
   <energy>
    <i name="e_fr_energy">   -499.19567707 </i>
    <i name="e_wo_entrp">   -499.18614248 </i>
    <i name="e_0_energy">   -499.19090978 </i>
   </energy>
  </scstep>
  <scstep>
   <time name="dav">    2.27    2.27</time>
   <time name="total">    3.92    3.93</time>
   <energy>
    <i name="e_fr_energy">   -498.12691300 </i>
    <i name="e_wo_entrp">   -498.12594322 </i>
    <i name="e_0_energy">   -498.12642811 </i>
   </energy>
  </scstep>
  <scstep>
   <time name="dav">    2.30    2.30</time>
   <time name="total">    3.98    3.99</time>
   <energy>
    <i name="e_fr_energy">   -497.82862042 </i>
    <i name="e_wo_entrp">   -497.81147395 </i>
    <i name="e_0_energy">   -497.82004718 </i>
   </energy>
  </scstep>
  <scstep>
   <time name="dav">    2.22    2.22</time>
   <time name="total">    3.88    3.88</time>
   <energy>
    <i name="e_fr_energy">   -500.11168876 </i>
    <i name="e_wo_entrp">   -500.11073956 </i>
    <i name="e_0_energy">   -500.11121416 </i>
   </energy>
  </scstep>
  <scstep>
   <time name="dav">    2.45    2.45</time>
   <time name="total">    4.10    4.11</time>
   <energy>
    <i name="e_fr_energy">   -497.93277240 </i>
    <i name="e_wo_entrp">   -497.93236168 </i>
    <i name="e_0_energy">   -497.93256704 </i>
   </energy>
  </scstep>
  <scstep>
   <time name="dav">    2.08    2.08</time>
   <time name="total">    3.75    3.75</time>
   <energy>
    <i name="e_fr_energy">   -497.71229679 </i>
    <i name="e_wo_entrp">   -497.71186971 </i>
    <i name="e_0_energy">   -497.71208325 </i>
   </energy>
  </scstep>
  <scstep>
   <time name="dav">    2.27    2.27</time>
   <time name="total">    3.94    3.94</time>
   <energy>
    <i name="e_fr_energy">   -497.59144044 </i>
    <i name="e_wo_entrp">   -497.59110351 </i>
    <i name="e_0_energy">   -497.59127197 </i>
   </energy>
  </scstep>
  <scstep>
   <time name="dav">    2.38    2.38</time>
   <time name="total">    4.04    4.04</time>
   <energy>
    <i name="e_fr_energy">   -497.56908367 </i>
    <i name="e_wo_entrp">   -497.56864010 </i>
    <i name="e_0_energy">   -497.56886188 </i>
   </energy>
  </scstep>
  <scstep>
   <time name="dav">    2.11    2.11</time>
   <time name="total">    3.77    3.78</time>
   <energy>
    <i name="e_fr_energy">   -497.57180585 </i>
    <i name="e_wo_entrp">   -497.57159811 </i>
    <i name="e_0_energy">   -497.57170198 </i>
   </energy>
  </scstep>
  <scstep>
   <time name="dav">    2.15    2.15</time>
   <time name="total">    3.80    3.80</time>
   <energy>
    <i name="e_fr_energy">   -497.57498911 </i>
    <i name="e_wo_entrp">   -497.57482693 </i>
    <i name="e_0_energy">   -497.57490802 </i>
   </energy>
  </scstep>
  <scstep>
   <time name="dav">    2.30    2.31</time>
   <time name="total">    3.98    3.98</time>
   <energy>
    <i name="e_fr_energy">   -497.57834470 </i>
    <i name="e_wo_entrp">   -497.57815422 </i>
    <i name="e_0_energy">   -497.57824946 </i>
   </energy>
  </scstep>
  <scstep>
   <time name="dav">    2.27    2.27</time>
   <time name="total">    3.89    3.90</time>
   <energy>
    <i name="e_fr_energy">   -497.58278962 </i>
    <i name="e_wo_entrp">   -497.58262127 </i>
    <i name="e_0_energy">   -497.58270544 </i>
   </energy>
  </scstep>
  <scstep>
   <time name="dav">    2.15    2.15</time>
   <time name="total">    3.80    3.80</time>
   <energy>
    <i name="e_fr_energy">   -497.58344992 </i>
    <i name="e_wo_entrp">   -497.58328672 </i>
    <i name="e_0_energy">   -497.58336832 </i>
   </energy>
  </scstep>
  <scstep>
   <time name="dav">    2.14    2.14</time>
   <time name="total">    3.81    3.81</time>
   <energy>
    <i name="e_fr_energy">   -497.58634653 </i>
    <i name="e_wo_entrp">   -497.58618853 </i>
    <i name="e_0_energy">   -497.58626753 </i>
   </energy>
  </scstep>
  <scstep>
   <time name="dav">    2.15    2.15</time>
   <time name="total">    3.80    3.80</time>
   <energy>
    <i name="e_fr_energy">   -497.58893274 </i>
    <i name="e_wo_entrp">   -497.58875247 </i>
    <i name="e_0_energy">   -497.58884260 </i>
   </energy>
  </scstep>
  <scstep>
   <time name="dav">    2.12    2.12</time>
   <time name="total">    3.77    3.77</time>
   <energy>
    <i name="e_fr_energy">   -497.59104979 </i>
    <i name="e_wo_entrp">   -497.59086073 </i>
    <i name="e_0_energy">   -497.59095526 </i>
   </energy>
  </scstep>
  <scstep>
   <time name="dav">    2.26    2.26</time>
   <time name="total">    3.92    3.92</time>
   <energy>
    <i name="e_fr_energy">   -497.59311748 </i>
    <i name="e_wo_entrp">   -497.59291433 </i>
    <i name="e_0_energy">   -497.59301591 </i>
   </energy>
  </scstep>
  <scstep>
   <time name="dav">    2.10    2.10</time>
   <time name="total">    3.79    3.79</time>
   <energy>
    <i name="e_fr_energy">   -497.59488578 </i>
    <i name="e_wo_entrp">   -497.59467653 </i>
    <i name="e_0_energy">   -497.59478115 </i>
   </energy>
  </scstep>
  <scstep>
   <time name="dav">    2.15    2.15</time>
   <time name="total">    3.83    3.84</time>
   <energy>
    <i name="e_fr_energy">   -497.59612319 </i>
    <i name="e_wo_entrp">   -497.59591475 </i>
    <i name="e_0_energy">   -497.59601897 </i>
   </energy>
  </scstep>
  <scstep>
   <time name="dav">    2.27    2.27</time>
   <time name="total">    3.92    3.92</time>
   <energy>
    <i name="e_fr_energy">   -497.59664017 </i>
    <i name="e_wo_entrp">   -497.59642922 </i>
    <i name="e_0_energy">   -497.59653470 </i>
   </energy>
  </scstep>
  <scstep>
   <time name="dav">    2.11    2.11</time>
   <time name="total">    3.78    3.79</time>
   <energy>
    <i name="e_fr_energy">   -497.59726947 </i>
    <i name="e_wo_entrp">   -497.59705669 </i>
    <i name="e_0_energy">   -497.59716308 </i>
   </energy>
  </scstep>
  <scstep>
   <time name="dav">    2.07    2.07</time>
   <time name="total">    3.73    3.73</time>
   <energy>
    <i name="e_fr_energy">   -497.59796602 </i>
    <i name="e_wo_entrp">   -497.59774917 </i>
    <i name="e_0_energy">   -497.59785759 </i>
   </energy>
  </scstep>
  <scstep>
   <time name="dav">    2.07    2.07</time>
   <time name="total">    3.75    3.75</time>
   <energy>
    <i name="e_fr_energy">   -497.59830068 </i>
    <i name="e_wo_entrp">   -497.59808513 </i>
    <i name="e_0_energy">   -497.59819290 </i>
   </energy>
  </scstep>
  <scstep>
   <time name="dav">    2.08    2.08</time>
   <time name="total">    3.75    3.75</time>
   <energy>
    <i name="e_fr_energy">   -497.59855981 </i>
    <i name="e_wo_entrp">   -497.59834391 </i>
    <i name="e_0_energy">   -497.59845186 </i>
   </energy>
  </scstep>
  <scstep>
   <time name="dav">    1.79    1.79</time>
   <time name="total">    3.45    3.46</time>
   <energy>
    <i name="e_fr_energy">   -497.59871245 </i>
    <i name="e_wo_entrp">   -497.59849620 </i>
    <i name="e_0_energy">   -497.59860433 </i>
   </energy>
  </scstep>
  <scstep>
   <time name="dav">    1.86    1.86</time>
   <time name="total">    3.50    3.50</time>
   <energy>
    <i name="e_fr_energy">   -497.59891561 </i>
    <i name="e_wo_entrp">   -497.59869977 </i>
    <i name="e_0_energy">   -497.59880769 </i>
   </energy>
  </scstep>
  <scstep>
   <time name="dav">    1.78    1.78</time>
   <time name="total">    3.44    3.45</time>
   <energy>
    <i name="e_fr_energy">   -497.59915393 </i>
    <i name="e_wo_entrp">   -497.59893798 </i>
    <i name="e_0_energy">   -497.59904595 </i>
   </energy>
  </scstep>
  <scstep>
   <time name="dav">    1.72    1.72</time>
   <time name="total">    3.40    3.40</time>
   <energy>
    <i name="e_fr_energy">   -497.59929277 </i>
    <i name="e_wo_entrp">   -497.59907653 </i>
    <i name="e_0_energy">   -497.59918465 </i>
   </energy>
  </scstep>
  <scstep>
   <time name="dav">    1.48    1.48</time>
   <time name="total">    3.11    3.11</time>
   <energy>
    <i name="e_fr_energy">   -497.59934231 </i>
    <i name="e_wo_entrp">   -497.59912620 </i>
    <i name="e_0_energy">   -497.59923425 </i>
   </energy>
  </scstep>
  <scstep>
   <time name="dav">    1.55    1.55</time>
   <time name="total">    3.23    3.23</time>
   <energy>
    <i name="e_fr_energy">   -497.59938699 </i>
    <i name="e_wo_entrp">   -497.59917079 </i>
    <i name="e_0_energy">   -497.59927889 </i>
   </energy>
  </scstep>
  <scstep>
   <time name="dav">    1.55    1.55</time>
   <time name="total">    3.20    3.20</time>
   <energy>
    <i name="e_fr_energy">   -497.59944020 </i>
    <i name="e_wo_entrp">   -497.59922374 </i>
    <i name="e_0_energy">   -497.59933197 </i>
   </energy>
  </scstep>
  <scstep>
   <time name="dav">    1.54    1.54</time>
   <time name="total">    3.21    3.21</time>
   <energy>
    <i name="e_fr_energy">   -497.59947020 </i>
    <i name="e_wo_entrp">   -497.59925406 </i>
    <i name="e_0_energy">   -497.59936213 </i>
   </energy>
  </scstep>
  <scstep>
   <time name="dav">    1.42    1.42</time>
   <time name="total">    3.05    3.05</time>
   <energy>
    <i name="e_fr_energy">   -497.59948391 </i>
    <i name="e_wo_entrp">   -497.59926773 </i>
    <i name="e_0_energy">   -497.59937582 </i>
   </energy>
  </scstep>
  <scstep>
   <time name="dav">    1.31    1.31</time>
   <time name="total">    2.95    2.95</time>
   <energy>
    <i name="e_fr_energy">   -497.59948756 </i>
    <i name="e_wo_entrp">   -497.59927143 </i>
    <i name="e_0_energy">   -497.59937950 </i>
   </energy>
  </scstep>
  <scstep>
   <time name="dav">    1.27    1.27</time>
   <time name="total">    2.94    2.94</time>
   <energy>
    <i name="e_fr_energy">   -497.59948893 </i>
    <i name="e_wo_entrp">   -497.59927282 </i>
    <i name="e_0_energy">   -497.59938088 </i>
   </energy>
  </scstep>
  <scstep>
   <time name="dav">    1.24    1.24</time>
   <time name="total">    2.90    2.91</time>
   <energy>
    <i name="e_fr_energy">   -497.59949011 </i>
    <i name="e_wo_entrp">   -497.59927401 </i>
    <i name="e_0_energy">   -497.59938206 </i>
   </energy>
  </scstep>
  <scstep>
   <time name="dav">    1.24    1.24</time>
   <time name="total">    2.89    2.90</time>
   <energy>
    <i name="e_fr_energy">   -497.59949138 </i>
    <i name="e_wo_entrp">   -497.59927527 </i>
    <i name="e_0_energy">   -497.59938332 </i>
   </energy>
  </scstep>
  <scstep>
   <time name="dav">    1.24    1.25</time>
   <time name="total">    2.90    2.91</time>
   <energy>
    <i name="e_fr_energy">   -497.59949240 </i>
    <i name="e_wo_entrp">   -497.59927632 </i>
    <i name="e_0_energy">   -497.59938436 </i>
   </energy>
  </scstep>
  <scstep>
   <time name="dav">    1.24    1.24</time>
   <time name="total">    2.29    2.29</time>
   <energy>
    <i name="alphaZ">   1011.17032867 </i>
    <i name="ewald"> 122829.15194079 </i>
    <i name="hartreedc">-162016.88942233 </i>
    <i name="XCdc">   1513.51421684 </i>
    <i name="pawpsdc">  41534.10789156 </i>
    <i name="pawaedc"> -41061.43252192 </i>
    <i name="eentropy">     -0.00021609 </i>
    <i name="bandstr">  -6613.15343764 </i>
    <i name="atom">  42305.93172720 </i>
    <i name="e_fr_energy">   -497.59949293 </i>
    <i name="e_wo_entrp">   -497.59927684 </i>
    <i name="e_0_energy">   -497.59938488 </i>
   </energy>
  </scstep>
  <structure>
   <crystal>
    <varray name="basis" >
     <v>      11.59819984       0.00000000       0.00000000 </v>
     <v>      -5.79909992      10.04433570       0.00000000 </v>
     <v>       0.00000000       0.00000000      21.04820061 </v>
    </varray>
    <i name="volume">   2452.03565684 </i>
    <varray name="rec_basis" >
     <v>       0.08622028       0.04977930       0.00000000 </v>
     <v>       0.00000000       0.09955860       0.00000000 </v>
     <v>       0.00000000       0.00000000       0.04751000 </v>
    </varray>
   </crystal>
   <varray name="positions" >
    <v>       0.99929271       0.00054636       0.46070849 </v>
    <v>       0.22164154       0.11063698       0.30955627 </v>
    <v>       0.33095103       0.00195410       0.46029448 </v>
    <v>       0.55585348       0.11155046       0.30952000 </v>
    <v>       0.67659448       0.00723643       0.45943992 </v>
    <v>       0.88935513       0.11149429       0.30983863 </v>
    <v>       0.99869077       0.33275195       0.46093905 </v>
    <v>       0.22114485       0.44376632       0.30939336 </v>
    <v>       0.32625834       0.32441412       0.45937786 </v>
    <v>       0.55577304       0.44400049       0.30883897 </v>
    <v>       0.66921477       0.33134101       0.46040604 </v>
    <v>       0.88901357       0.44434172       0.30984213 </v>
    <v>       0.00026846       0.66623792       0.46046008 </v>
    <v>       0.22150564       0.77774406       0.30932959 </v>
    <v>       0.32330020       0.66025043       0.45759739 </v>
    <v>       0.55586200       0.77837400       0.30866332 </v>
    <v>       0.67648482       0.67276394       0.45978983 </v>
    <v>       0.88972761       0.77823667       0.30966492 </v>
    <v>       0.99995013       0.00011019       0.57256769 </v>
    <v>       0.11141298       0.22245974       0.27250928 </v>
    <v>       0.22297978       0.11173317       0.42174214 </v>
    <v>       0.11076011       0.22213618       0.49695272 </v>
    <v>       0.00004219       0.99993536       0.34737866 </v>
    <v>       0.33357692       0.99919935       0.57380798 </v>
    <v>       0.44449338       0.22238840       0.27251595 </v>
    <v>       0.55454193       0.10959938       0.42191335 </v>
    <v>       0.44152761       0.21709128       0.49660734 </v>
    <v>       0.33335593       0.99991000       0.34780265 </v>
    <v>       0.66065368       0.99455041       0.57275901 </v>
    <v>       0.77754846       0.22206481       0.27250784 </v>
    <v>       0.88826227       0.11076254       0.42143684 </v>
    <v>       0.77785801       0.22262009       0.49699413 </v>
    <v>       0.66622710       0.99941660       0.34784659 </v>
    <v>       0.99988137       0.33324879       0.57250013 </v>
    <v>       0.11148598       0.55573931       0.27251963 </v>
    <v>       0.22435675       0.44602044       0.42200848 </v>
    <v>       0.11136395       0.55604804       0.49686583 </v>
    <v>       0.00033590       0.33351055       0.34736274 </v>
    <v>       0.33653632       0.33911401       0.57185556 </v>
    <v>       0.44458658       0.55570012       0.27254318 </v>
    <v>       0.55399299       0.44606420       0.41536303 </v>
    <v>       0.43819621       0.55228999       0.49725404 </v>
    <v>       0.33379258       0.33368151       0.34799850 </v>
    <v>       0.66731939       0.33273275       0.57313484 </v>
    <v>       0.77743087       0.55557520       0.27252219 </v>
    <v>       0.88882551       0.44485332       0.42153491 </v>
    <v>       0.78271540       0.55840772       0.49673449 </v>
    <v>       0.66614229       0.33348570       0.34752134 </v>
    <v>       0.00018917       0.66672918       0.57254482 </v>
    <v>       0.11122304       0.88887352       0.27250202 </v>
    <v>       0.22364437       0.77838121       0.42209015 </v>
    <v>       0.11162528       0.88867036       0.49754583 </v>
    <v>       0.00020122       0.66686044       0.34749227 </v>
    <v>       0.33383498       0.66766770       0.57307937 </v>
    <v>       0.44449253       0.88866180       0.27254432 </v>
    <v>       0.55326304       0.77763743       0.41509905 </v>
    <v>       0.43929532       0.89253624       0.49539642 </v>
    <v>       0.33373349       0.66678523       0.34829645 </v>
    <v>       0.65755161       0.66127641       0.57292415 </v>
[...]
    <i name="e_0_energy">   -503.59386210 </i>
   </energy>
  </scstep>
  <scstep>
   <time name="dav">    1.93    1.93</time>
   <time name="total">    3.58    3.62</time>
   <energy>
    <i name="e_fr_energy">   -503.62312180 </i>
    <i name="e_wo_entrp">   -503.62256353 </i>
    <i name="e_0_energy">   -503.62284267 </i>
   </energy>
  </scstep>
  <scstep>
   <time name="dav">    2.00    2.00</time>
   <time name="total">    3.65    3.65</time>
   <energy>
    <i name="e_fr_energy">   -503.65689312 </i>
    <i name="e_wo_entrp">   -503.65638462 </i>
    <i name="e_0_energy">   -503.65663887 </i>
   </energy>
  </scstep>
  <scstep>
   <time name="dav">    1.82    1.82</time>
   <time name="total">    3.49    3.50</time>
   <energy>
    <i name="e_fr_energy">   -503.68358961 </i>
    <i name="e_wo_entrp">   -503.68307471 </i>
    <i name="e_0_energy">   -503.68333216 </i>
   </energy>
  </scstep>
  <scstep>
   <time name="dav">    1.89    1.89</time>
   <time name="total">    3.56    3.56</time>
   <energy>
    <i name="e_fr_energy">   -503.69780467 </i>
    <i name="e_wo_entrp">   -503.69726493 </i>
    <i name="e_0_energy">   -503.69753480 </i>
   </energy>
  </scstep>
  <scstep>
   <time name="dav">    1.89    1.89</time>
   <time name="total">    3.54    3.54</time>
   <energy>
    <i name="e_fr_energy">   -503.70585289 </i>
    <i name="e_wo_entrp">   -503.70529699 </i>
    <i name="e_0_energy">   -503.70557494 </i>
   </energy>
  </scstep>
  <scstep>
   <time name="dav">    1.96    1.96</time>
   <time name="total">    3.62    3.63</time>
   <energy>
    <i name="e_fr_energy">   -503.71069278 </i>
    <i name="e_wo_entrp">   -503.71014152 </i>
    <i name="e_0_energy">   -503.71041715 </i>
   </energy>
  </scstep>
  <scstep>
   <time name="dav">    1.93    1.93</time>
   <time name="total">    3.58    3.60</time>
   <energy>
    <i name="e_fr_energy">   -503.71254993 </i>
    <i name="e_wo_entrp">   -503.71198633 </i>
    <i name="e_0_energy">   -503.71226813 </i>
   </energy>
  </scstep>
  <scstep>
   <time name="dav">    2.07    2.07</time>
   <time name="total">    3.72    3.73</time>
   <energy>
    <i name="e_fr_energy">   -503.71320648 </i>
    <i name="e_wo_entrp">   -503.71263939 </i>
    <i name="e_0_energy">   -503.71292294 </i>
   </energy>
  </scstep>
  <scstep>
   <time name="dav">    1.97    1.97</time>
   <time name="total">    3.63    3.63</time>
   <energy>
    <i name="e_fr_energy">   -503.71342142 </i>
    <i name="e_wo_entrp">   -503.71285455 </i>
    <i name="e_0_energy">   -503.71313798 </i>
   </energy>
  </scstep>
  <scstep>
   <time name="dav">    1.65    1.65</time>
   <time name="total">    3.32    3.32</time>
   <energy>
    <i name="e_fr_energy">   -503.71351618 </i>
    <i name="e_wo_entrp">   -503.71294781 </i>
    <i name="e_0_energy">   -503.71323200 </i>
   </energy>
  </scstep>
  <scstep>
   <time name="dav">    1.66    1.66</time>
   <time name="total">    3.31    3.31</time>
   <energy>
    <i name="e_fr_energy">   -503.71356660 </i>
    <i name="e_wo_entrp">   -503.71299908 </i>
    <i name="e_0_energy">   -503.71328284 </i>
   </energy>
  </scstep>
  <scstep>
   <time name="dav">    1.31    1.31</time>
   <time name="total">    2.97    2.97</time>
   <energy>
    <i name="e_fr_energy">   -503.71358445 </i>
    <i name="e_wo_entrp">   -503.71301738 </i>
    <i name="e_0_energy">   -503.71330092 </i>
   </energy>
  </scstep>
  <scstep>
   <time name="dav">    1.31    1.31</time>
   <time name="total">    2.99    2.99</time>
   <energy>
    <i name="e_fr_energy">   -503.71359302 </i>
    <i name="e_wo_entrp">   -503.71302592 </i>
    <i name="e_0_energy">   -503.71330947 </i>
   </energy>
  </scstep>
  <scstep>
   <time name="dav">    1.27    1.27</time>
   <time name="total">    2.91    2.92</time>
   <energy>
    <i name="e_fr_energy">   -503.71360377 </i>
    <i name="e_wo_entrp">   -503.71303704 </i>
    <i name="e_0_energy">   -503.71332040 </i>
   </energy>
  </scstep>
  <scstep>
   <time name="dav">    1.44    1.45</time>
   <time name="total">    3.10    3.10</time>
   <energy>
    <i name="e_fr_energy">   -503.71361539 </i>
    <i name="e_wo_entrp">   -503.71304907 </i>
    <i name="e_0_energy">   -503.71333223 </i>
   </energy>
  </scstep>
  <scstep>
   <time name="dav">    1.31    1.31</time>
   <time name="total">    2.98    2.98</time>
   <energy>
    <i name="e_fr_energy">   -503.71362301 </i>
    <i name="e_wo_entrp">   -503.71305661 </i>
    <i name="e_0_energy">   -503.71333981 </i>
   </energy>
  </scstep>
  <scstep>
   <time name="dav">    1.31    1.31</time>
   <time name="total">    2.95    2.95</time>
   <energy>
    <i name="e_fr_energy">   -503.71362727 </i>
    <i name="e_wo_entrp">   -503.71306095 </i>
    <i name="e_0_energy">   -503.71334411 </i>
   </energy>
  </scstep>
  <scstep>
   <time name="dav">    1.28    1.28</time>
   <time name="total">    2.93    2.93</time>
   <energy>
    <i name="e_fr_energy">   -503.71362924 </i>
    <i name="e_wo_entrp">   -503.71306310 </i>
    <i name="e_0_energy">   -503.71334617 </i>
   </energy>
  </scstep>
  <scstep>
   <time name="dav">    1.28    1.28</time>
   <time name="total">    2.93    2.93</time>
   <energy>
    <i name="e_fr_energy">   -503.71363112 </i>
    <i name="e_wo_entrp">   -503.71306501 </i>
    <i name="e_0_energy">   -503.71334806 </i>
   </energy>
  </scstep>
  <scstep>
   <time name="dav">    1.27    1.28</time>
   <time name="total">    2.94    2.94</time>
   <energy>
    <i name="e_fr_energy">   -503.71363287 </i>
    <i name="e_wo_entrp">   -503.71306670 </i>
    <i name="e_0_energy">   -503.71334978 </i>
   </energy>
  </scstep>
  <scstep>
   <time name="dav">    1.24    1.24</time>
   <time name="total">    2.29    2.29</time>
   <energy>
    <i name="alphaZ">   1011.17032867 </i>
    <i name="ewald"> 118450.74429972 </i>
    <i name="hartreedc">-157614.69276808 </i>
    <i name="XCdc">   1510.09032169 </i>
    <i name="pawpsdc">  40581.92736846 </i>
    <i name="pawaedc"> -40109.94072326 </i>
    <i name="eentropy">     -0.00056618 </i>
    <i name="bandstr">  -6638.94362199 </i>
    <i name="atom">  42305.93172720 </i>
    <i name="e_fr_energy">   -503.71363377 </i>
    <i name="e_wo_entrp">   -503.71306759 </i>
    <i name="e_0_energy">   -503.71335068 </i>
   </energy>
  </scstep>
  <structure>
   <crystal>
    <varray name="basis" >
     <v>      11.59819984       0.00000000       0.00000000 </v>
     <v>      -5.79909992      10.04433570       0.00000000 </v>
     <v>       0.00000000       0.00000000      21.04820061 </v>
    </varray>
    <i name="volume">   2452.03565684 </i>
    <varray name="rec_basis" >
     <v>       0.08622028       0.04977930       0.00000000 </v>
     <v>       0.00000000       0.09955860       0.00000000 </v>
     <v>       0.00000000       0.00000000       0.04751000 </v>
    </varray>
   </crystal>
   <varray name="positions" >
    <v>       0.00498413       0.00235632       0.45836199 </v>
    <v>       0.22114708       0.10963256       0.30715730 </v>
    <v>       0.33073519       0.99597193       0.46243465 </v>
    <v>       0.55531409       0.11151062       0.30891917 </v>
    <v>       0.67441939       0.00583241       0.45699987 </v>
    <v>       0.89057569       0.11288300       0.30588620 </v>
    <v>       0.99844703       0.33271058       0.45935473 </v>
    <v>       0.21880116       0.44209170       0.30670723 </v>
    <v>       0.33168636       0.32872989       0.45826355 </v>
    <v>       0.55550056       0.44311894       0.30579830 </v>
    <v>       0.67082152       0.33349128       0.45833330 </v>
    <v>       0.88952654       0.44369575       0.30783767 </v>
    <v>       0.00429171       0.66744016       0.45906984 </v>
    <v>       0.22194581       0.77834371       0.30776809 </v>
    <v>       0.33136424       0.65858575       0.45726541 </v>
    <v>       0.55643792       0.77989450       0.30582831 </v>
    <v>       0.66943496       0.66423423       0.45664943 </v>
    <v>       0.89136912       0.77988354       0.30733664 </v>
    <v>       0.00236131       0.00165002       0.57377344 </v>
    <v>       0.10910845       0.22146583       0.26824777 </v>
    <v>       0.22039156       0.10852375       0.41950093 </v>
    <v>       0.10926983       0.22090167       0.49418941 </v>
    <v>       0.00043449       0.00002968       0.34426358 </v>
    <v>       0.32667377       0.00260465       0.57989686 </v>
    <v>       0.44503388       0.22333447       0.26984809 </v>
    <v>       0.55627239       0.10625357       0.42030692 </v>
    <v>       0.43771270       0.21194020       0.49188572 </v>
    <v>       0.33254698       0.99947909       0.34748027 </v>
    <v>       0.64570491       0.99035066       0.57598456 </v>
    <v>       0.77846973       0.22253215       0.27016035 </v>
    <v>       0.89105650       0.11390484       0.41615514 </v>
    <v>       0.78109949       0.22298214       0.49088943 </v>
    <v>       0.66813109       0.00098540       0.34478161 </v>
    <v>       0.99918459       0.33099567       0.57436128 </v>
    <v>       0.11096968       0.55583444       0.26976678 </v>
    <v>       0.22504269       0.44368853       0.41909505 </v>
    <v>       0.11262979       0.55354763       0.49318138 </v>
    <v>       0.00199804       0.33522126       0.34493782 </v>
    <v>       0.33808895       0.34927379       0.57983617 </v>
    <v>       0.44596150       0.55671424       0.26992222 </v>
    <v>       0.55696094       0.44733832       0.41760259 </v>
    <v>       0.44134897       0.53976030       0.49971057 </v>
    <v>       0.32938060       0.33010668       0.34471853 </v>
    <v>       0.66637591       0.33891309       0.57361611 </v>
    <v>       0.77595653       0.55426239       0.27069626 </v>
    <v>       0.88805834       0.44426176       0.41733552 </v>
    <v>       0.78902214       0.56363652       0.49238072 </v>
    <v>       0.66513941       0.33094598       0.34554663 </v>
    <v>       0.99929050       0.66809698       0.57372159 </v>
    <v>       0.11241490       0.88912446       0.26901403 </v>
    <v>       0.22989472       0.78013483       0.42153635 </v>
    <v>       0.11227853       0.88877096       0.49848537 </v>
    <v>       0.00421576       0.66863173       0.34545160 </v>
    <v>       0.34420208       0.69316759       0.56989370 </v>
    <v>       0.44492072       0.88765821       0.27027840 </v>
    <v>       0.54828059       0.77776089       0.41822611 </v>
    <v>       0.44793749       0.89773426       0.50474165 </v>
    <v>       0.32891868       0.66385682       0.34560702 </v>
    <v>       0.64696546       0.64262380       0.57686566 </v>
    <v>       0.77588604       0.88991201       0.26840531 </v>
    <v>       0.89103436       0.77757664       0.41728445 </v>
    <v>       0.78745521       0.89544153       0.48966805 </v>
    <v>       0.66817168       0.67130008       0.34419028 </v>
    <v>       0.40797591       0.92172164       0.63414517 </v>
    <v>       0.53842948       0.77836275       0.65415926 </v>
    <v>       0.58378526       0.77378621       0.52511722 </v>
    <v>       0.42226203       0.57106177       0.64019769 </v>
    <v>       0.55193067       0.44191655       0.66489716 </v>
    <v>       0.56951244       0.40721887       0.54428829 </v>
    <v>       0.48942024       0.84814001       0.59169170 </v>
    <v>       0.49607959       0.49169580       0.60050055 </v>
   </varray>
  </structure>
  <varray name="forces" >
   <v>      -0.09047654      -0.09085899      -0.23539365 </v>
   <v>       0.13428001       0.07641360      -0.10721785 </v>
   <v>       0.00451750       0.51178068      -0.20833140 </v>
   <v>      -0.03593617      -0.07740462      -0.12434292 </v>
   <v>      -0.09466343       0.19113655      -0.19599927 </v>
   <v>      -0.07645612      -0.12838824      -0.13480211 </v>
   <v>       0.14223386       0.06817201      -0.33236814 </v>
   <v>       0.26224514       0.17494030      -0.15712024 </v>
   <v>       0.07742455      -0.53997172      -0.26120708 </v>
   <v>      -0.13450081       0.19075237       0.13129818 </v>
   <v>      -0.35318630       0.05983295       0.43690774 </v>
   <v>      -0.09127799       0.12596255      -0.22835677 </v>
   <v>      -0.33667074      -0.18273189      -0.14583240 </v>
   <v>       0.11731246      -0.01568855      -0.03819587 </v>
   <v>      -0.56010396       0.00363423      -0.23635961 </v>
   <v>       0.09561906      -0.22089109      -0.32593423 </v>
   <v>       0.55544560       0.13254877      -0.04633973 </v>
   <v>      -0.16176695      -0.19563212      -0.11336998 </v>
   <v>       0.05576072       0.04068259      -0.16580302 </v>
   <v>       0.04488102       0.03033469      -0.00557156 </v>
   <v>      -0.16070635      -0.03708593      -0.02264534 </v>
   <v>       0.02367205      -0.03786065       0.06593595 </v>
   <v>       0.07726771       0.01308435       0.05801289 </v>
   <v>       0.21145275      -0.12699261       0.15907495 </v>
   <v>       0.00652484      -0.12657625      -0.01963067 </v>
   <v>       0.01214887       0.02951556      -0.05704538 </v>
   <v>      -0.21903911      -0.31512702      -0.35659124 </v>
   <v>       0.00093835       0.04158143      -0.08931452 </v>
   <v>       0.39501278       0.72852691       0.00629194 </v>
   <v>      -0.04592212       0.03180573      -0.01372968 </v>
   <v>       0.06335786      -0.15573911       0.21498161 </v>
   <v>       0.04192443      -0.04592456       0.20311175 </v>
   <v>      -0.03272317      -0.11549613       0.29988862 </v>
   <v>       0.03491001      -0.01613525      -0.11525455 </v>
   <v>       0.01021584      -0.03858224      -0.09566271 </v>
   <v>       0.11811967       0.05117934       0.10315965 </v>
   <v>       0.03723499      -0.08113090      -0.00283484 </v>
   <v>       0.03688172       0.00412287       0.08007089 </v>
   <v>       0.31211082      -0.12278416      -0.31457060 </v>
   <v>      -0.07584967      -0.06305212      -0.00076701 </v>
   <v>      -0.01557542      -0.05550352      -0.24604150 </v>
   <v>       0.22274764      -0.07480895       0.34139459 </v>
   <v>       0.12590354       0.00763780       0.25644328 </v>
   <v>      -3.32396705       1.56388948      -1.24182957 </v>
   <v>       0.09112752       0.04363662       0.01584041 </v>
   <v>       0.12995613       0.03344479       0.14345528 </v>
   <v>       0.16959886       0.27635283      -0.36732086 </v>
   <v>      -0.00276736      -0.04038773       0.15447796 </v>
   <v>      -0.08865862       0.01247066      -0.11868431 </v>
   <v>      -0.01236707       0.04659492       0.00591051 </v>
   <v>       0.01778546      -0.11843099       0.05265476 </v>
   <v>      -0.09029096      -0.01599105      -0.02497690 </v>
   <v>      -0.00714634       0.04449642       0.05862737 </v>
   <v>       0.12221155      -0.27415034       0.25370421 </v>
   <v>      -0.07751133       0.06653028      -0.00693814 </v>
   <v>       0.09715253      -0.10427937      -0.24437094 </v>
   <v>       0.13949108      -0.07848777      -0.22582300 </v>
   <v>       0.17458120       0.02979290       0.17910304 </v>
   <v>       0.05648085      -0.11414077       0.02777522 </v>
   <v>       0.10800353       0.02952488       0.00719903 </v>
   <v>      -0.00246097       0.18283540       0.08092107 </v>
   <v>      -0.00877067       0.00679276       0.08029862 </v>
   <v>      -0.01476382      -0.06953302       0.44983619 </v>
   <v>       0.06780674      -0.09864335      -0.53290480 </v>
   <v>       0.15649152       0.25177727       0.33443426 </v>
   <v>      -0.15891235       0.07857043       0.42132468 </v>
   <v>      -0.48836256       0.16966441       0.18582550 </v>
   <v>       0.43715349      -0.18489020       0.55471233 </v>
   <v>       4.18911153      -2.16077590       0.75248069 </v>
   <v>      -1.19545405       0.57157873       0.34615687 </v>
   <v>      -1.22080776       0.20247907       0.69817237 </v>
  </varray>
  <varray name="stress" >
   <v>     -17.43843111       1.76118420      -3.51522839 </v>
   <v>       1.76117216     -10.19655348       2.14208782 </v>
   <v>      -3.51507789       2.14199403       1.46214309 </v>
  </varray>
  <energy>
   <i name="e_fr_energy">   -503.71363377 </i>
   <i name="e_wo_entrp">   -503.71306759 </i>
   <i name="e_0_energy">   -503.71335068 </i>
  </energy>
  <time name="totalsc">  132.08  162.12</time>
 </calculation>
 <calculation>
  <scstep>
   <time name="dav">    1.56    1.56</time>
   <time name="total">    3.20    3.20</time>
   <energy>
    <i name="alphaZ">   1011.17032867 </i>
    <i name="ewald"> 117289.62607354 </i>
    <i name="hartreedc">-156456.99815733 </i>
    <i name="XCdc">   1509.52054924 </i>
    <i name="pawpsdc">  40581.92850064 </i>
    <i name="pawaedc"> -40109.94184138 </i>
    <i name="eentropy">     -0.00069242 </i>
    <i name="bandstr">  -6633.93417630 </i>
    <i name="atom">  42305.93172720 </i>
    <i name="e_fr_energy">   -502.69768814 </i>
    <i name="e_wo_entrp">   -502.69699572 </i>
    <i name="e_0_energy">   -502.69734193 </i>
   </energy>
  </scstep>
  <scstep>
   <time name="dav">    1.82    1.82</time>
   <time name="total">    3.46    3.47</time>
   <energy>
    <i name="e_fr_energy">   -504.66447486 </i>
    <i name="e_wo_entrp">   -504.66234009 </i>
    <i name="e_0_energy">   -504.66340747 </i>
   </energy>
  </scstep>
  <scstep>
   <time name="dav">    2.42    2.42</time>
   <time name="total">    4.07    4.23</time>
   <energy>
    <i name="e_fr_energy">   -504.57865041 </i>
    <i name="e_wo_entrp">   -504.57786349 </i>
    <i name="e_0_energy">   -504.57825695 </i>
   </energy>
  </scstep>
  <scstep>
   <time name="dav">    2.45    2.45</time>
   <time name="total">    4.10    4.16</time>
   <energy>
    <i name="e_fr_energy">   -504.54128968 </i>
    <i name="e_wo_entrp">   -504.54062048 </i>
    <i name="e_0_energy">   -504.54095508 </i>
   </energy>
  </scstep>
  <scstep>
   <time name="dav">    2.22    2.22</time>
   <time name="total">    3.87    3.95</time>
   <energy>
    <i name="e_fr_energy">   -504.53099213 </i>
    <i name="e_wo_entrp">   -504.53063356 </i>
    <i name="e_0_energy">   -504.53081285 </i>
   </energy>
  </scstep>
  <scstep>
   <time name="dav">    2.18    2.18</time>
   <time name="total">    3.83    3.87</time>
   <energy>
    <i name="e_fr_energy">   -504.51476349 </i>
    <i name="e_wo_entrp">   -504.51431237 </i>
    <i name="e_0_energy">   -504.51453793 </i>
   </energy>
  </scstep>
  <scstep>
   <time name="dav">    2.35    2.35</time>
   <time name="total">    4.00    4.03</time>
   <energy>
    <i name="e_fr_energy">   -504.51765442 </i>
    <i name="e_wo_entrp">   -504.51726568 </i>
    <i name="e_0_energy">   -504.51746005 </i>
   </energy>
  </scstep>
  <scstep>
   <time name="dav">    2.50    2.50</time>
   <time name="total">    4.15    4.18</time>
   <energy>
    <i name="e_fr_energy">   -504.51807656 </i>
    <i name="e_wo_entrp">   -504.51765863 </i>
    <i name="e_0_energy">   -504.51786759 </i>
   </energy>
  </scstep>
  <scstep>
   <time name="dav">    2.26    2.26</time>
   <time name="total">    3.93    4.01</time>
   <energy>
    <i name="e_fr_energy">   -504.52202258 </i>
    <i name="e_wo_entrp">   -504.52163454 </i>
    <i name="e_0_energy">   -504.52182856 </i>
   </energy>
  </scstep>
  <scstep>
   <time name="dav">    2.22    2.22</time>
   <time name="total">    3.87    4.00</time>
   <energy>
    <i name="e_fr_energy">   -504.52558198 </i>
    <i name="e_wo_entrp">   -504.52520021 </i>
    <i name="e_0_energy">   -504.52539110 </i>
   </energy>
  </scstep>
  <scstep>
   <time name="dav">    2.30    2.30</time>
   <time name="total">    3.97    4.00</time>
   <energy>
    <i name="e_fr_energy">   -504.52776405 </i>
    <i name="e_wo_entrp">   -504.52740126 </i>
    <i name="e_0_energy">   -504.52758265 </i>
   </energy>
  </scstep>
  <scstep>
