<?xml version="1.0" encoding="ISO-8859-1"?>
<modeling>
 <generator>
  <i name="program" type="string">vasp </i>
  <i name="version" type="string">6.4.3  </i>
  <i name="subversion" type="string">19Mar24 (build Mar 01 2025 18:03:59) gamma-only                       parallel </i>
  <i name="platform" type="string">Shaheen </i>
  <i name="date" type="string">2025 04 27 </i>
  <i name="time" type="string">15:13:28 </i>
 </generator>
 <incar>
  <i type="int" name="ISTART">     1</i>
  <i type="string" name="PREC">Accurate   (Precision level: Normal or Accurate, set Accurate when perform structure lattice relaxation calculation)</i>
  <i type="logical" name="ADDGRID"> T  </i>
  <i type="int" name="ISPIN">     2</i>
  <i type="int" name="NELM">    90</i>
  <i type="int" name="NELMIN">     6</i>
  <i type="int" name="IBRION">     2</i>
  <i name="EDIFF">      0.00000100</i>
  <i name="EDIFFG">     -0.02000000</i>
  <i type="int" name="NSW">   300</i>
  <i type="int" name="ISIF">     2</i>
  <i name="ENCUT">    520.00000000</i>
  <v name="MAGMOM">      1.00000000      1.00000000      1.00000000      1.00000000      1.00000000      1.00000000      1.00000000      1.00000000      1.00000000      1.00000000      1.00000000      1.00000000      1.00000000      1.00000000      1.00000000      1.00000000      1.00000000      1.00000000      0.60000000      0.60000000
      0.60000000      0.60000000      0.60000000      0.60000000      0.60000000      0.60000000      0.60000000      0.60000000      0.60000000      0.60000000      0.60000000      0.60000000      0.60000000      0.60000000      0.60000000      0.60000000      0.60000000      0.60000000      0.60000000      0.60000000
      0.60000000      0.60000000      0.60000000      0.60000000      0.60000000      0.60000000      0.60000000      0.60000000      0.60000000      0.60000000      0.60000000      0.60000000      0.60000000      0.60000000      0.60000000      0.60000000      0.60000000      0.60000000      0.60000000      0.60000000
      0.60000000      0.60000000      0.60000000      0.60000000      0.60000000      0.60000000      0.60000000      0.60000000      0.60000000      0.60000000      0.60000000</v>
  <i type="logical" name="LREAL"> F  </i>
  <i type="int" name="ISMEAR">     0</i>
  <i name="SIGMA">      0.05000000</i>
  <i type="int" name="LMAXMIX">     6</i>
  <i type="logical" name="LWAVE"> F  </i>
  <i type="logical" name="LCHARG"> F  </i>
  <i type="logical" name="LASPH"> T  </i>
  <i type="logical" name="LDAU"> T  </i>
  <i type="int" name="LDAUTYPE">     2</i>
  <v type="int" name="LDAUL">     3    -1     2</v>
  <v name="LDAUU">      5.00000000      0.00000000      2.00000000</v>
  <v name="LDAUJ">      0.00000000      0.00000000      0.00000000</v>
 </incar>
 <primitive_cell>
  <structure name="primitive_cell" >
   <crystal>
    <varray name="basis" >
     <v>      11.59819984       0.00000000       0.00000000 </v>
     <v>      -5.79909992      10.04433570       0.00000000 </v>
     <v>       0.00000000       0.00000000      21.04820061 </v>
    </varray>
    <i name="volume">   2452.03565684 </i>
    <varray name="rec_basis" >
     <v>       0.08622028       0.04977930       0.00000000 </v>
     <v>       0.00000000       0.09955860       0.00000000 </v>
     <v>       0.00000000       0.00000000       0.04751000 </v>
    </varray>
   </crystal>
   <varray name="positions" >
    <v>       0.00000000       0.00000000       0.45993000 </v>
    <v>       0.22222000       0.11111000       0.30996000 </v>
    <v>       0.33333000       0.00000000       0.45993000 </v>
    <v>       0.55556000       0.11111000       0.30996000 </v>
    <v>       0.66667000       0.00000000       0.45993000 </v>
    <v>       0.88889000       0.11111000       0.30996000 </v>
    <v>       1.00000000       0.33333000       0.45993000 </v>
    <v>       0.22222000       0.44444000       0.30996000 </v>
    <v>       0.33333000       0.33333000       0.45993000 </v>
    <v>       0.55556000       0.44444000       0.30996000 </v>
    <v>       0.66667000       0.33333000       0.45993000 </v>
    <v>       0.88889000       0.44444000       0.30996000 </v>
    <v>       1.00000000       0.66667000       0.45993000 </v>
    <v>       0.22222000       0.77778000       0.30996000 </v>
    <v>       0.33333000       0.66667000       0.45993000 </v>
    <v>       0.55556000       0.77778000       0.30996000 </v>
    <v>       0.66667000       0.66667000       0.45993000 </v>
    <v>       0.88889000       0.77778000       0.30996000 </v>
    <v>       0.00000000       0.00000000       0.57241000 </v>
    <v>       0.11111000       0.22222000       0.27247000 </v>
    <v>       0.22222000       0.11111000       0.42244000 </v>
    <v>       0.11111000       0.22222000       0.49742000 </v>
    <v>       0.00000000       0.00000000       0.34745000 </v>
    <v>       0.33333000       0.00000000       0.57241000 </v>
    <v>       0.44444000       0.22222000       0.27247000 </v>
    <v>       0.55556000       0.11111000       0.42244000 </v>
    <v>       0.44444000       0.22222000       0.49742000 </v>
    <v>       0.33333000       0.00000000       0.34745000 </v>
    <v>       0.66667000       0.00000000       0.57241000 </v>
    <v>       0.77778000       0.22222000       0.27247000 </v>
    <v>       0.88889000       0.11111000       0.42244000 </v>
    <v>       0.77778000       0.22222000       0.49742000 </v>
    <v>       0.66667000       0.00000000       0.34745000 </v>
    <v>       1.00000000       0.33333000       0.57241000 </v>
    <v>       0.11111000       0.55556000       0.27247000 </v>
    <v>       0.22222000       0.44444000       0.42244000 </v>
    <v>       0.11111000       0.55556000       0.49742000 </v>
    <v>       1.00000000       0.33333000       0.34745000 </v>
    <v>       0.33333000       0.33333000       0.57241000 </v>
    <v>       0.44444000       0.55556000       0.27247000 </v>
    <v>       0.55556000       0.44444000       0.42244000 </v>
    <v>       0.44444000       0.55556000       0.49742000 </v>
    <v>       0.33333000       0.33333000       0.34745000 </v>
    <v>       0.66667000       0.33333000       0.57241000 </v>
    <v>       0.77778000       0.55556000       0.27247000 </v>
    <v>       0.88889000       0.44444000       0.42244000 </v>
    <v>       0.77778000       0.55556000       0.49742000 </v>
    <v>       0.66667000       0.33333000       0.34745000 </v>
    <v>       1.00000000       0.66667000       0.57241000 </v>
    <v>       0.11111000       0.88889000       0.27247000 </v>
    <v>       0.22222000       0.77778000       0.42244000 </v>
    <v>       0.11111000       0.88889000       0.49742000 </v>
    <v>       1.00000000       0.66667000       0.34745000 </v>
    <v>       0.33333000       0.66667000       0.57241000 </v>
    <v>       0.44444000       0.88889000       0.27247000 </v>
    <v>       0.55556000       0.77778000       0.42244000 </v>
    <v>       0.44444000       0.88889000       0.49742000 </v>
    <v>       0.33333000       0.66667000       0.34745000 </v>
    <v>       0.66667000       0.66667000       0.57241000 </v>
    <v>       0.77778000       0.88889000       0.27247000 </v>
    <v>       0.88889000       0.77778000       0.42244000 </v>
    <v>       0.77778000       0.88889000       0.49742000 </v>
    <v>       0.66667000       0.66667000       0.34745000 </v>
    <v>       0.41995000       0.90566000       0.63222000 </v>
    <v>       0.56244000       0.76382000       0.64172000 </v>
    <v>       0.55931000       0.77277000       0.51616000 </v>
    <v>       0.42431000       0.57633000       0.63422000 </v>
    <v>       0.55313000       0.44676000       0.64709000 </v>
    <v>       0.56544000       0.43664000       0.51651000 </v>
    <v>       0.49197000       0.83062000       0.57349000 </v>
    <v>       0.49190000       0.50494000       0.57828000 </v>
   </varray>
  </structure>
  <varray name="primitive_index" >
   <v type="int" >        1 </v>
   <v type="int" >        2 </v>
   <v type="int" >        3 </v>
   <v type="int" >        4 </v>
   <v type="int" >        5 </v>
   <v type="int" >        6 </v>
   <v type="int" >        7 </v>
   <v type="int" >        8 </v>
   <v type="int" >        9 </v>
   <v type="int" >       10 </v>
   <v type="int" >       11 </v>
   <v type="int" >       12 </v>
   <v type="int" >       13 </v>
   <v type="int" >       14 </v>
   <v type="int" >       15 </v>
   <v type="int" >       16 </v>
   <v type="int" >       17 </v>
   <v type="int" >       18 </v>
   <v type="int" >       19 </v>
   <v type="int" >       20 </v>
   <v type="int" >       21 </v>
   <v type="int" >       22 </v>
   <v type="int" >       23 </v>
   <v type="int" >       24 </v>
   <v type="int" >       25 </v>
   <v type="int" >       26 </v>
   <v type="int" >       27 </v>
   <v type="int" >       28 </v>
   <v type="int" >       29 </v>
   <v type="int" >       30 </v>
   <v type="int" >       31 </v>
   <v type="int" >       32 </v>
   <v type="int" >       33 </v>
   <v type="int" >       34 </v>
   <v type="int" >       35 </v>
   <v type="int" >       36 </v>
   <v type="int" >       37 </v>
   <v type="int" >       38 </v>
   <v type="int" >       39 </v>
   <v type="int" >       40 </v>
   <v type="int" >       41 </v>
   <v type="int" >       42 </v>
   <v type="int" >       43 </v>
   <v type="int" >       44 </v>
   <v type="int" >       45 </v>
   <v type="int" >       46 </v>
   <v type="int" >       47 </v>
   <v type="int" >       48 </v>
   <v type="int" >       49 </v>
   <v type="int" >       50 </v>
   <v type="int" >       51 </v>
   <v type="int" >       52 </v>
   <v type="int" >       53 </v>
   <v type="int" >       54 </v>
   <v type="int" >       55 </v>
   <v type="int" >       56 </v>
   <v type="int" >       57 </v>
   <v type="int" >       58 </v>
   <v type="int" >       59 </v>
   <v type="int" >       60 </v>
   <v type="int" >       61 </v>
   <v type="int" >       62 </v>
   <v type="int" >       63 </v>
   <v type="int" >       64 </v>
   <v type="int" >       65 </v>
   <v type="int" >       66 </v>
   <v type="int" >       67 </v>
   <v type="int" >       68 </v>
   <v type="int" >       69 </v>
   <v type="int" >       70 </v>
   <v type="int" >       71 </v>
  </varray>
 </primitive_cell>
 <kpoints>
  <generation param="Gamma">
   <v type="int" name="divisions">       1        1        1 </v>
   <v name="usershift">      0.00000000       0.00000000       0.00000000 </v>
   <v name="genvec1">      1.00000000      -0.00000000       0.00000000 </v>
   <v name="genvec2">      0.00000000       1.00000000       0.00000000 </v>
   <v name="genvec3">      0.00000000       0.00000000       1.00000000 </v>
   <v name="shift">      0.00000000       0.00000000       0.00000000 </v>
  </generation>
  <varray name="kpointlist" >
   <v>       0.00000000       0.00000000       0.00000000 </v>
  </varray>
  <varray name="weights" >
   <v>       1.00000000 </v>
  </varray>
 </kpoints>
 <parameters>
  <separator name="general" >
   <i type="string" name="SYSTEM">unknown system</i>
   <i type="logical" name="LCOMPAT"> F  </i>
  </separator>
  <separator name="electronic" >
   <i type="string" name="PREC">accura</i>
   <i name="ENMAX">    520.00000000</i>
   <i name="ENAUG">    605.39200000</i>
   <i name="EDIFF">      0.00000100</i>
   <i type="int" name="IALGO">    38</i>
   <i type="int" name="IWAVPR">    11</i>
   <i type="int" name="NBANDS">   384</i>
   <i type="int" name="NBANDSLOW">    -1</i>
   <i type="int" name="NBANDSHIGH">    -1</i>
   <i name="NELECT">    540.00000000</i>
   <i type="int" name="TURBO">     0</i>
   <i type="int" name="IRESTART">     0</i>
   <i type="int" name="NREBOOT">     0</i>
   <i type="int" name="NMIN">     0</i>
   <i name="EREF">      0.00000000</i>
   <separator name="electronic smearing" >
    <i type="int" name="ISMEAR">     0</i>
    <i name="SIGMA">      0.05000000</i>
    <i name="KSPACING">      0.50000000</i>
    <i type="logical" name="KGAMMA"> T  </i>
    <i type="logical" name="KBLOWUP"> T  </i>
   </separator>
   <separator name="electronic projectors" >
    <i type="logical" name="LREAL"> F  </i>
    <v name="ROPT">      0.00000000      0.00000000      0.00000000</v>
    <i type="int" name="LMAXPAW">  -100</i>
    <i type="int" name="LMAXMIX">     6</i>
    <i type="logical" name="NLSPLINE"> F  </i>
   </separator>
   <separator name="electronic startup" >
    <i type="int" name="ISTART">     0</i>
    <i type="int" name="ICHARG">     2</i>
    <i type="int" name="INIWAV">     1</i>
   </separator>
   <separator name="electronic spin" >
    <i type="int" name="ISPIN">     2</i>
    <i type="logical" name="LNONCOLLINEAR"> F  </i>
    <v name="MAGMOM">      1.00000000      1.00000000      1.00000000      1.00000000      1.00000000      1.00000000      1.00000000      1.00000000      1.00000000      1.00000000      1.00000000      1.00000000      1.00000000      1.00000000      1.00000000      1.00000000      1.00000000      1.00000000      0.60000000      0.60000000
      0.60000000      0.60000000      0.60000000      0.60000000      0.60000000      0.60000000      0.60000000      0.60000000      0.60000000      0.60000000      0.60000000      0.60000000      0.60000000      0.60000000      0.60000000      0.60000000      0.60000000      0.60000000      0.60000000      0.60000000
      0.60000000      0.60000000      0.60000000      0.60000000      0.60000000      0.60000000      0.60000000      0.60000000      0.60000000      0.60000000      0.60000000      0.60000000      0.60000000      0.60000000      0.60000000      0.60000000      0.60000000      0.60000000      0.60000000      0.60000000
      0.60000000      0.60000000      0.60000000      0.60000000      0.60000000      0.60000000      0.60000000      0.60000000      0.60000000      0.60000000      0.60000000</v>
    <i name="NUPDOWN">     -1.00000000</i>
    <i type="logical" name="LSORBIT"> F  </i>
    <v name="SAXIS">      0.00000000      0.00000000      1.00000000</v>
    <i type="logical" name="LSPIRAL"> F  </i>
    <v name="QSPIRAL">      0.00000000      0.00000000      0.00000000</v>
    <i type="logical" name="LZEROZ"> F  </i>
   </separator>
   <separator name="electronic exchange-correlation" >
    <i type="logical" name="LASPH"> T  </i>
   </separator>
   <separator name="electronic convergence" >
    <i type="int" name="NELM">    90</i>
    <i type="int" name="NELMDL">     0</i>
    <i type="int" name="NELMIN">     6</i>
    <i name="ENINI">    520.00000000</i>
    <separator name="electronic convergence detail" >
     <i type="logical" name="LDIAG"> T  </i>
     <i type="logical" name="LSUBROT"> F  </i>
     <i name="WEIMIN">      0.00100000</i>
     <i name="EBREAK">      0.00000000</i>
     <i name="DEPER">      0.30000000</i>
     <i type="int" name="NRMM">     4</i>
     <i name="TIME">      0.40000000</i>
    </separator>
   </separator>
   <separator name="electronic mixer" >
    <i name="AMIX">      0.40000000</i>
    <i name="BMIX">      1.00000000</i>
    <i name="AMIN">      0.10000000</i>
    <i name="AMIX_MAG">      1.60000000</i>
    <i name="BMIX_MAG">      1.00000000</i>
    <separator name="electronic mixer details" >
     <i type="int" name="IMIX">     4</i>
     <i type="logical" name="MIXFIRST"> F  </i>
     <i type="int" name="MAXMIX">   -45</i>
     <i name="WC">    100.00000000</i>
     <i type="int" name="INIMIX">     1</i>
     <i type="int" name="MIXPRE">     1</i>
     <i type="int" name="MREMOVE">     5</i>
    </separator>
   </separator>
   <separator name="electronic dipolcorrection" >
    <i type="logical" name="LDIPOL"> F  </i>
    <i type="logical" name="LMONO"> F  </i>
    <i type="int" name="IDIPOL">     0</i>
    <i name="EPSILON">      1.00000000</i>
    <v name="DIPOL">   -100.00000000   -100.00000000   -100.00000000</v>
    <i name="EFIELD">      0.00000000</i>
    <i type="logical" name="LVACPOTAV"> F  </i>
   </separator>
  </separator>
  <separator name="grids" >
   <i type="int" name="NGX">    90</i>
   <i type="int" name="NGY">    90</i>
   <i type="int" name="NGZ">   160</i>
   <i type="int" name="NGXF">   180</i>
   <i type="int" name="NGYF">   180</i>
   <i type="int" name="NGZF">   320</i>
   <i type="logical" name="ADDGRID"> T  </i>
  </separator>
  <separator name="ionic" >
   <i type="int" name="NSW">   300</i>
   <i type="int" name="IBRION">     2</i>
   <i type="int" name="MDALGO">     0</i>
   <i type="int" name="ISIF">     2</i>
   <i name="PSTRESS">      0.00000000</i>
   <i name="EDIFFG">     -0.02000000</i>
   <i type="int" name="NFREE">     1</i>
   <i name="POTIM">      0.50000000</i>
   <i name="SMASS">     -3.00000000</i>
   <i name="SCALEE">      1.00000000</i>
  </separator>
  <separator name="ionic md" >
   <i name="TEBEG">      0.00010000</i>
   <i name="TEEND">      0.00010000</i>
   <i type="int" name="NBLOCK">     1</i>
   <i type="int" name="KBLOCK">   300</i>
   <i type="int" name="NPACO">   256</i>
   <i name="APACO">     10.00000000</i>
  </separator>
  <separator name="symmetry" >
   <i type="int" name="ISYM">     2</i>
   <i name="SYMPREC">      0.00001000</i>
  </separator>
  <separator name="dos" >
   <i type="int" name="LORBIT">     0</i>
   <v name="RWIGS">     -1.00000000     -1.00000000     -1.00000000</v>
   <i type="int" name="NEDOS">   301</i>
   <i name="EMIN">     10.00000000</i>
   <i name="EMAX">    -10.00000000</i>
   <i name="EFERMI">      0.00000000</i>
  </separator>
  <separator name="writing" >
   <i type="int" name="NWRITE">     2</i>
   <i type="logical" name="LWAVE"> F  </i>
   <i type="logical" name="LDOWNSAMPLE"> F  </i>
   <i type="logical" name="LCHARG"> F  </i>
   <i type="logical" name="LPARD"> F  </i>
   <i type="logical" name="LVTOT"> F  </i>
   <i type="logical" name="LVHAR"> F  </i>
   <i type="logical" name="LELF"> F  </i>
   <i type="logical" name="LOPTICS"> F  </i>
   <v name="STM">      0.00000000      0.00000000      0.00000000      0.00000000      0.00000000      0.00000000      0.00000000</v>
  </separator>
  <separator name="performance" >
   <i type="int" name="NPAR">    48</i>
   <i type="int" name="NSIM">     4</i>
   <i type="int" name="NBLK">    -1</i>
   <i type="logical" name="LPLANE"> T  </i>
   <i type="logical" name="LSCALAPACK"> T  </i>
   <i type="logical" name="LSCAAWARE"> T  </i>
   <i type="logical" name="LSCALU"> F  </i>
   <i type="logical" name="LASYNC"> F  </i>
   <i type="logical" name="LORBITALREAL"> F  </i>
  </separator>
  <separator name="miscellaneous" >
   <i type="int" name="IDIOT">     3</i>
   <i type="int" name="PHON_NSTRUCT">    -1</i>
   <i type="logical" name="LMUSIC"> F  </i>
   <v name="POMASS">    140.11500000     16.00000000    192.22000000</v>
   <v name="DARWINR">      0.00000000      0.00000000      0.00000000</v>
   <v name="DARWINV">      1.00000000      1.00000000      1.00000000</v>
   <i type="logical" name="LCORR"> T  </i>
  </separator>
  <i type="logical" name="GGA_COMPAT"> T  </i>
  <i type="logical" name="LBERRY"> F  </i>
  <i type="int" name="ICORELEVEL">     0</i>
  <i type="logical" name="LDAU"> T  </i>
  <v type="int" name="LDAUTYPE">     2</v>
  <v type="int" name="LDAUL">     3</v>
  <v name="LDAUU">      5.00000000</v>
  <v name="LDAUJ">      0.00000000</v>
  <i type="int" name="LDAUPRINT">     0</i>
  <i type="int" name="I_CONSTRAINED_M">     0</i>
  <separator name="electronic exchange-correlation" >
   <i type="string" name="GGA    ">PE</i>
   <i type="string" name="XC_C">1</i>
   <i type="int" name="VOSKOWN">     0</i>
   <i type="logical" name="LHFCALC"> F  </i>
   <i type="string" name="PRECFOCK"></i>
   <i type="logical" name="LSYMGRAD"> F  </i>
   <i type="logical" name="LHFONE"> F  </i>
   <i type="logical" name="LRHFCALC"> F  </i>
   <i type="logical" name="LTHOMAS"> F  </i>
   <i type="logical" name="LMODELHF"> F  </i>
   <i type="logical" name="LFOCKACE"> F  </i>
   <i name="ENCUT4O">     -1.00000000</i>
   <i type="int" name="EXXOEP">     0</i>
   <i type="int" name="FOURORBIT">     0</i>
   <i name="AEXX">      0.00000000</i>
   <i name="HFALPHA">      0.00000000</i>
   <i name="MCALPHA">      0.00000000</i>
   <i name="ALDAX">      1.00000000</i>
   <i name="AGGAX">      1.00000000</i>
   <i name="AMGGAX">      1.00000000</i>
   <i name="ALDAC">      1.00000000</i>
   <i name="AGGAC">      1.00000000</i>
   <i name="AMGGAC">      1.00000000</i>
   <i type="int" name="NKREDX">     1</i>
   <i type="int" name="NKREDY">     1</i>
   <i type="int" name="NKREDZ">     1</i>
   <i type="logical" name="SHIFTRED"> F  </i>
   <i type="logical" name="ODDONLY"> F  </i>
   <i type="logical" name="EVENONLY"> F  </i>
   <i type="int" name="LMAXFOCK">     0</i>
   <i type="int" name="NMAXFOCKAE">     0</i>
   <i type="logical" name="LFOCKAEDFT"> F  </i>
   <i name="HFSCREEN">      0.00000000</i>
   <i name="HFSCREENC">      0.00000000</i>
   <i type="int" name="NBANDSGWLOW">     0</i>
  </separator>
  <separator name="vdW DFT" >
   <i type="logical" name="LUSE_VDW"> F  </i>
   <i type="int" name="IVDW_NL">    -1</i>
   <i type="logical" name="LSPIN_VDW"> F  </i>
   <i name="ZAB_VDW">     -0.84910000</i>
   <i name="GAMMA_VDW">      1.39626340</i>
   <i name="ALPHA_VDW">      0.00000000</i>
   <i name="PARAM1">      0.12340000</i>
   <i name="PARAM2">      1.00000000</i>
   <i name="BPARAM">      6.30000000</i>
   <i name="CPARAM">      0.00930000</i>
  </separator>
  <separator name="model GW" >
   <i type="int" name="MODEL_GW">     0</i>
   <i name="MODEL_EPS0">     20.72142809</i>
   <i name="MODEL_ALPHA">      1.00000000</i>
  </separator>
  <separator name="linear response parameters" >
   <i type="logical" name="LEPSILON"> F  </i>
   <i type="logical" name="LRPA"> F  </i>
   <i type="logical" name="LNABLA"> F  </i>
   <i type="logical" name="LVEL"> F  </i>
   <i name="CSHIFT">      0.10000000</i>
   <i name="OMEGAMAX">     -1.00000000</i>
   <i name="DEG_THRESHOLD">      0.00200000</i>
   <i name="RTIME">     -0.10000000</i>
   <i name="WPLASMAI">      0.00000000</i>
   <v name="DFIELD">      0.00000000      0.00000000      0.00000000</v>
   <v name="WPLASMA">      0.00000000      0.00000000      0.00000000      0.00000000      0.00000000      0.00000000      0.00000000      0.00000000      0.00000000</v>
  </separator>
  <separator name="orbital magnetization" >
   <i type="logical" name="NUCIND"> F  </i>
   <v name="MAGPOS">      0.00000000      0.00000000      0.00000000</v>
   <i type="logical" name="LNICSALL"> T  </i>
   <i type="logical" name="ORBITALMAG"> F  </i>
   <i type="logical" name="LMAGBLOCH"> F  </i>
   <i type="logical" name="LCHIMAG"> F  </i>
   <i type="logical" name="LGAUGE"> T  </i>
   <i type="int" name="MAGATOM">     0</i>
   <v name="MAGDIPOL">      0.00000000      0.00000000      0.00000000</v>
   <v name="AVECCONST">      0.00000000      0.00000000      0.00000000</v>
  </separator>
  <separator name="response functions" >
   <i type="logical" name="LALL_IN_ONE"> F  </i>
   <i type="int" name="IALL_IN_ONE">    -1</i>
   <i type="int" name="NBANDS_WAVE">    -1</i>
   <i type="logical" name="LFINITE_TEMPERATURE"> F  </i>
   <i type="logical" name="LADDER"> F  </i>
   <i type="logical" name="LRPAFORCE"> F  </i>
   <i type="logical" name="LFXC"> F  </i>
   <i type="logical" name="LHARTREE"> T  </i>
   <i type="int" name="IBSE">     0</i>
   <v type="int" name="KPOINT">    -1     0     0     0</v>
   <i type="logical" name="LTCTC"> F  </i>
   <i type="logical" name="LTCTE"> F  </i>
   <i type="logical" name="LTETE"> F  </i>
   <i type="logical" name="LTRIPLET"> F  </i>
   <i type="logical" name="LFXCEPS"> F  </i>
   <i type="logical" name="LFXHEG"> F  </i>
   <i type="int" name="NATURALO">     2</i>
   <i type="logical" name="LHOLEGF"> F  </i>
   <i type="logical" name="L2ORDER"> F  </i>
   <i type="logical" name="LDMP1"> F  </i>
   <i type="logical" name="LMP2LT"> F  </i>
   <i type="logical" name="LSMP2LT"> F  </i>
   <i type="logical" name="LGWLF"> F  </i>
   <i name="ENCUTGW">     -1.60000002</i>
   <i name="ENCUTGWSOFT">     -1.60000002</i>
   <i name="ENCUTLF">     -1.00000000</i>
   <i type="logical" name="ESF_SPLINES"> F  </i>
   <i name="ESF_CONV">      0.01000000</i>
   <i type="int" name="ESF_NINTER">    15</i>
   <i type="int" name="LMAXMP2">    -1</i>
   <i name="SCISSOR">      0.00000000</i>
   <i type="int" name="NOMEGA">     0</i>
   <i type="int" name="NOMEGAR">     0</i>
   <i type="int" name="NBANDSGW">    -1</i>
   <i type="int" name="NBANDSO">    -1</i>
   <i type="int" name="NBANDSV">    -1</i>
   <i type="int" name="NELMGW">     1</i>
   <i type="int" name="NELMHF">     1</i>
   <i type="int" name="DIM">     3</i>
   <i type="int" name="IESPILON">     4</i>
   <i type="int" name="ANTIRES">     0</i>
   <i name="OMEGAMAX">    -30.00000000</i>
   <i name="OMEGAMIN">    -30.00000000</i>
   <i name="OMEGATL">   -200.00000000</i>
   <i type="int" name="OMEGAGRID">     0</i>
   <i name="CSHIFT">     -0.10000000</i>
   <i type="logical" name="LSELFENERGY"> F  </i>
   <i type="logical" name="LSPECTRAL"> F  </i>
   <i type="logical" name="LSPECTRALGW"> F  </i>
   <i type="logical" name="LSINGLES"> F  </i>
   <i type="logical" name="LFERMIGW"> F  </i>
   <i type="logical" name="ODDONLYGW"> F  </i>
   <i type="logical" name="EVENONLYGW"> F  </i>
   <i type="int" name="NKREDLFX">     1</i>
   <i type="int" name="NKREDLFY">     1</i>
   <i type="int" name="NKREDLFZ">     1</i>
   <i type="int" name="MAXMEM">  2800</i>
   <i type="int" name="TELESCOPE">     0</i>
   <i type="int" name="NTAUPAR">    -1</i>
   <i type="int" name="NOMEGAPAR">    -1</i>
   <i name="DAMP_NEWTON">      0.80000001</i>
   <i name="LAMBDA">      1.00000000</i>
  </separator>
  <separator name="External order field" >
   <i name="OFIELD_KAPPA">      0.00000000</i>
   <v name="OFIELD_K">      0.00000000      0.00000000      0.00000000</v>
   <i name="OFIELD_Q6_NEAR">      0.00000000</i>
   <i name="OFIELD_Q6_FAR">      0.00000000</i>
   <i name="OFIELD_A">      0.00000000</i>
  </separator>
  <separator name="optional k-points parameters" >
   <i type="int" name="KPOINTS_OPT_MODE">     1</i>
   <i type="logical" name="LKPOINTS_OPT"> F  </i>
  </separator>
 </parameters>
 <atominfo>
  <atoms>      71 </atoms>
  <types>       3 </types>
  <array name="atoms" >
   <dimension dim="1">ion</dimension>
   <field type="string">element</field>
   <field type="int">atomtype</field>
   <set>
    <rc><c>Ce</c><c>   1</c></rc>
    <rc><c>Ce</c><c>   1</c></rc>
    <rc><c>Ce</c><c>   1</c></rc>
    <rc><c>Ce</c><c>   1</c></rc>
    <rc><c>Ce</c><c>   1</c></rc>
    <rc><c>Ce</c><c>   1</c></rc>
    <rc><c>Ce</c><c>   1</c></rc>
    <rc><c>Ce</c><c>   1</c></rc>
    <rc><c>Ce</c><c>   1</c></rc>
    <rc><c>Ce</c><c>   1</c></rc>
    <rc><c>Ce</c><c>   1</c></rc>
    <rc><c>Ce</c><c>   1</c></rc>
    <rc><c>Ce</c><c>   1</c></rc>
    <rc><c>Ce</c><c>   1</c></rc>
    <rc><c>Ce</c><c>   1</c></rc>
    <rc><c>Ce</c><c>   1</c></rc>
    <rc><c>Ce</c><c>   1</c></rc>
    <rc><c>Ce</c><c>   1</c></rc>
    <rc><c>O </c><c>   2</c></rc>
    <rc><c>O </c><c>   2</c></rc>
    <rc><c>O </c><c>   2</c></rc>
    <rc><c>O </c><c>   2</c></rc>
    <rc><c>O </c><c>   2</c></rc>
    <rc><c>O </c><c>   2</c></rc>
    <rc><c>O </c><c>   2</c></rc>
    <rc><c>O </c><c>   2</c></rc>
    <rc><c>O </c><c>   2</c></rc>
    <rc><c>O </c><c>   2</c></rc>
    <rc><c>O </c><c>   2</c></rc>
    <rc><c>O </c><c>   2</c></rc>
    <rc><c>O </c><c>   2</c></rc>
    <rc><c>O </c><c>   2</c></rc>
    <rc><c>O </c><c>   2</c></rc>
    <rc><c>O </c><c>   2</c></rc>
    <rc><c>O </c><c>   2</c></rc>
    <rc><c>O </c><c>   2</c></rc>
    <rc><c>O </c><c>   2</c></rc>
    <rc><c>O </c><c>   2</c></rc>
    <rc><c>O </c><c>   2</c></rc>
    <rc><c>O </c><c>   2</c></rc>
    <rc><c>O </c><c>   2</c></rc>
    <rc><c>O </c><c>   2</c></rc>
    <rc><c>O </c><c>   2</c></rc>
    <rc><c>O </c><c>   2</c></rc>
    <rc><c>O </c><c>   2</c></rc>
    <rc><c>O </c><c>   2</c></rc>
    <rc><c>O </c><c>   2</c></rc>
    <rc><c>O </c><c>   2</c></rc>
    <rc><c>O </c><c>   2</c></rc>
    <rc><c>O </c><c>   2</c></rc>
    <rc><c>O </c><c>   2</c></rc>
    <rc><c>O </c><c>   2</c></rc>
    <rc><c>O </c><c>   2</c></rc>
    <rc><c>O </c><c>   2</c></rc>
    <rc><c>O </c><c>   2</c></rc>
    <rc><c>O </c><c>   2</c></rc>
    <rc><c>O </c><c>   2</c></rc>
    <rc><c>O </c><c>   2</c></rc>
    <rc><c>O </c><c>   2</c></rc>
    <rc><c>O </c><c>   2</c></rc>
    <rc><c>O </c><c>   2</c></rc>
    <rc><c>O </c><c>   2</c></rc>
    <rc><c>O </c><c>   2</c></rc>
    <rc><c>O </c><c>   2</c></rc>
    <rc><c>O </c><c>   2</c></rc>
    <rc><c>O </c><c>   2</c></rc>
    <rc><c>O </c><c>   2</c></rc>
    <rc><c>O </c><c>   2</c></rc>
    <rc><c>O </c><c>   2</c></rc>
    <rc><c>Ir</c><c>   3</c></rc>
    <rc><c>Ir</c><c>   3</c></rc>
   </set>
  </array>
  <array name="atomtypes" >
   <dimension dim="1">type</dimension>
   <field type="int">atomspertype</field>
   <field type="string">element</field>
   <field>mass</field>
   <field>valence</field>
   <field type="string">pseudopotential</field>
   <set>
    <rc><c>  18</c><c>Ce</c><c>    140.11500000</c><c>     12.00000000</c><c>  PAW_PBE Ce 23Dec2003                  </c></rc>
    <rc><c>  51</c><c>O </c><c>     16.00000000</c><c>      6.00000000</c><c>  PAW_PBE O 08Apr2002                   </c></rc>
    <rc><c>   2</c><c>Ir</c><c>    192.22000000</c><c>      9.00000000</c><c>  PAW_PBE Ir 06Sep2000                  </c></rc>
   </set>
  </array>
 </atominfo>
 <structure name="initialpos" >
  <crystal>
   <varray name="basis" >
    <v>      11.59819984       0.00000000       0.00000000 </v>
    <v>      -5.79909992      10.04433570       0.00000000 </v>
    <v>       0.00000000       0.00000000      21.04820061 </v>
   </varray>
   <i name="volume">   2452.03565684 </i>
   <varray name="rec_basis" >
    <v>       0.08622028       0.04977930       0.00000000 </v>
    <v>       0.00000000       0.09955860       0.00000000 </v>
    <v>       0.00000000       0.00000000       0.04751000 </v>
   </varray>
  </crystal>
  <varray name="positions" >
   <v>       0.00000000       0.00000000       0.45993000 </v>
   <v>       0.22222000       0.11111000       0.30996000 </v>
   <v>       0.33333000       0.00000000       0.45993000 </v>
   <v>       0.55556000       0.11111000       0.30996000 </v>
   <v>       0.66667000       0.00000000       0.45993000 </v>
   <v>       0.88889000       0.11111000       0.30996000 </v>
   <v>       0.00000000       0.33333000       0.45993000 </v>
   <v>       0.22222000       0.44444000       0.30996000 </v>
   <v>       0.33333000       0.33333000       0.45993000 </v>
   <v>       0.55556000       0.44444000       0.30996000 </v>
   <v>       0.66667000       0.33333000       0.45993000 </v>
   <v>       0.88889000       0.44444000       0.30996000 </v>
   <v>       0.00000000       0.66667000       0.45993000 </v>
   <v>       0.22222000       0.77778000       0.30996000 </v>
   <v>       0.33333000       0.66667000       0.45993000 </v>
   <v>       0.55556000       0.77778000       0.30996000 </v>
   <v>       0.66667000       0.66667000       0.45993000 </v>
   <v>       0.88889000       0.77778000       0.30996000 </v>
   <v>       0.00000000       0.00000000       0.57241000 </v>
   <v>       0.11111000       0.22222000       0.27247000 </v>
   <v>       0.22222000       0.11111000       0.42244000 </v>
   <v>       0.11111000       0.22222000       0.49742000 </v>
   <v>       0.00000000       0.00000000       0.34745000 </v>
   <v>       0.33333000       0.00000000       0.57241000 </v>
   <v>       0.44444000       0.22222000       0.27247000 </v>
   <v>       0.55556000       0.11111000       0.42244000 </v>
   <v>       0.44444000       0.22222000       0.49742000 </v>
   <v>       0.33333000       0.00000000       0.34745000 </v>
   <v>       0.66667000       0.00000000       0.57241000 </v>
   <v>       0.77778000       0.22222000       0.27247000 </v>
   <v>       0.88889000       0.11111000       0.42244000 </v>
   <v>       0.77778000       0.22222000       0.49742000 </v>
   <v>       0.66667000       0.00000000       0.34745000 </v>
   <v>       0.00000000       0.33333000       0.57241000 </v>
   <v>       0.11111000       0.55556000       0.27247000 </v>
   <v>       0.22222000       0.44444000       0.42244000 </v>
   <v>       0.11111000       0.55556000       0.49742000 </v>
   <v>       0.00000000       0.33333000       0.34745000 </v>
   <v>       0.33333000       0.33333000       0.57241000 </v>
   <v>       0.44444000       0.55556000       0.27247000 </v>
   <v>       0.55556000       0.44444000       0.42244000 </v>
   <v>       0.44444000       0.55556000       0.49742000 </v>
   <v>       0.33333000       0.33333000       0.34745000 </v>
   <v>       0.66667000       0.33333000       0.57241000 </v>
   <v>       0.77778000       0.55556000       0.27247000 </v>
   <v>       0.88889000       0.44444000       0.42244000 </v>
   <v>       0.77778000       0.55556000       0.49742000 </v>
   <v>       0.66667000       0.33333000       0.34745000 </v>
   <v>       0.00000000       0.66667000       0.57241000 </v>
   <v>       0.11111000       0.88889000       0.27247000 </v>
   <v>       0.22222000       0.77778000       0.42244000 </v>
   <v>       0.11111000       0.88889000       0.49742000 </v>
   <v>       0.00000000       0.66667000       0.34745000 </v>
   <v>       0.33333000       0.66667000       0.57241000 </v>
   <v>       0.44444000       0.88889000       0.27247000 </v>
   <v>       0.55556000       0.77778000       0.42244000 </v>
   <v>       0.44444000       0.88889000       0.49742000 </v>
   <v>       0.33333000       0.66667000       0.34745000 </v>
   <v>       0.66667000       0.66667000       0.57241000 </v>
   <v>       0.77778000       0.88889000       0.27247000 </v>
   <v>       0.88889000       0.77778000       0.42244000 </v>
   <v>       0.77778000       0.88889000       0.49742000 </v>
   <v>       0.66667000       0.66667000       0.34745000 </v>
   <v>       0.41995000       0.90566000       0.63222000 </v>
   <v>       0.56244000       0.76382000       0.64172000 </v>
   <v>       0.55931000       0.77277000       0.51616000 </v>
   <v>       0.42431000       0.57633000       0.63422000 </v>
   <v>       0.55313000       0.44676000       0.64709000 </v>
   <v>       0.56544000       0.43664000       0.51651000 </v>
   <v>       0.49197000       0.83062000       0.57349000 </v>
   <v>       0.49190000       0.50494000       0.57828000 </v>
  </varray>
 </structure>
 <calculation>
  <scstep>
   <time name="dav">    1.70    1.72</time>
   <time name="total">    2.85    2.88</time>
   <energy>
    <i name="alphaZ">   1011.17032867 </i>
    <i name="ewald"> 123827.45758914 </i>
    <i name="hartreedc">-161599.89990319 </i>
    <i name="XCdc">   1466.58854679 </i>
    <i name="pawpsdc">  34088.29200945 </i>
    <i name="pawaedc"> -33649.72740068 </i>
    <i name="eentropy">     -0.00545253 </i>
    <i name="bandstr">   2113.52558154 </i>
    <i name="atom">  42305.93172720 </i>
    <i name="e_fr_energy">   9563.33302639 </i>
    <i name="e_wo_entrp">   9563.33847892 </i>
    <i name="e_0_energy">   9563.33575266 </i>
   </energy>
  </scstep>
  <scstep>
   <time name="dav">    1.87    1.87</time>
   <time name="total">    1.87    1.87</time>
   <energy>
    <i name="e_fr_energy">   2606.08498290 </i>
    <i name="e_wo_entrp">   2606.20648304 </i>
    <i name="e_0_energy">   2606.14573297 </i>
   </energy>
  </scstep>
  <scstep>
   <time name="dav">    2.17    2.17</time>
   <time name="total">    2.17    2.17</time>
   <energy>
    <i name="e_fr_energy">   -276.61537409 </i>
    <i name="e_wo_entrp">   -276.61521011 </i>
    <i name="e_0_energy">   -276.61529210 </i>
   </energy>
  </scstep>
  <scstep>
   <time name="dav">    2.08    2.08</time>
   <time name="total">    2.08    2.08</time>
   <energy>
    <i name="e_fr_energy">   -631.98760708 </i>
    <i name="e_wo_entrp">   -631.94628143 </i>
    <i name="e_0_energy">   -631.96694426 </i>
   </energy>
  </scstep>
  <scstep>
   <time name="dav">    2.38    2.38</time>
   <time name="total">    3.06    3.07</time>
   <energy>
    <i name="e_fr_energy">   -648.30104244 </i>
    <i name="e_wo_entrp">   -648.23797182 </i>
    <i name="e_0_energy">   -648.26950713 </i>
   </energy>
  </scstep>
  <scstep>
   <time name="dav">    2.16    2.16</time>
   <time name="total">    3.86    3.86</time>
   <energy>
    <i name="e_fr_energy">   -576.56044015 </i>
    <i name="e_wo_entrp">   -576.40645078 </i>
    <i name="e_0_energy">   -576.48344546 </i>
   </energy>
  </scstep>
  <scstep>
   <time name="dav">    2.26    2.26</time>
   <time name="total">    3.95    3.96</time>
   <energy>
    <i name="e_fr_energy">   -483.59946626 </i>
    <i name="e_wo_entrp">   -483.52595697 </i>
    <i name="e_0_energy">   -483.56271162 </i>
   </energy>
  </scstep>
  <scstep>
   <time name="dav">    2.46    2.46</time>
   <time name="total">    4.11    4.11</time>
   <energy>
    <i name="e_fr_energy">   -559.41680605 </i>
    <i name="e_wo_entrp">   -559.16486907 </i>
    <i name="e_0_energy">   -559.29083756 </i>
   </energy>
  </scstep>
  <scstep>
   <time name="dav">    2.36    2.36</time>
   <time name="total">    4.00    4.00</time>
   <energy>
    <i name="e_fr_energy">   -508.40835727 </i>
    <i name="e_wo_entrp">   -508.34556962 </i>
    <i name="e_0_energy">   -508.37696345 </i>
   </energy>
  </scstep>
  <scstep>
   <time name="dav">    2.27    2.27</time>
   <time name="total">    3.94    3.94</time>
   <energy>
    <i name="e_fr_energy">   -506.41239280 </i>
    <i name="e_wo_entrp">   -506.38632752 </i>
    <i name="e_0_energy">   -506.39936016 </i>
   </energy>
  </scstep>
  <scstep>
   <time name="dav">    2.33    2.33</time>
   <time name="total">    4.00    4.00</time>
   <energy>
    <i name="e_fr_energy">   -509.15069587 </i>
    <i name="e_wo_entrp">   -509.13762560 </i>
    <i name="e_0_energy">   -509.14416073 </i>
   </energy>
  </scstep>
  <scstep>
   <time name="dav">    2.07    2.08</time>
   <time name="total">    3.74    3.74</time>
   <energy>
    <i name="e_fr_energy">   -493.99755928 </i>
    <i name="e_wo_entrp">   -493.94075059 </i>
    <i name="e_0_energy">   -493.96915493 </i>
   </energy>
  </scstep>
  <scstep>
   <time name="dav">    2.23    2.23</time>
   <time name="total">    3.90    3.91</time>
   <energy>
    <i name="e_fr_energy">   -484.85359794 </i>
    <i name="e_wo_entrp">   -484.79483744 </i>
    <i name="e_0_energy">   -484.82421769 </i>
   </energy>
  </scstep>
  <scstep>
   <time name="dav">    2.12    2.12</time>
   <time name="total">    3.76    3.76</time>
   <energy>
    <i name="e_fr_energy">   -481.72884820 </i>
    <i name="e_wo_entrp">   -481.69414398 </i>
    <i name="e_0_energy">   -481.71149609 </i>
   </energy>
  </scstep>
  <scstep>
   <time name="dav">    2.14    2.14</time>
   <time name="total">    3.80    3.81</time>
   <energy>
    <i name="e_fr_energy">   -480.71345358 </i>
    <i name="e_wo_entrp">   -480.66438932 </i>
    <i name="e_0_energy">   -480.68892145 </i>
   </energy>
  </scstep>
  <scstep>
   <time name="dav">    2.46    2.46</time>
   <time name="total">    4.12    4.12</time>
   <energy>
    <i name="e_fr_energy">   -481.06889653 </i>
    <i name="e_wo_entrp">   -481.00324891 </i>
    <i name="e_0_energy">   -481.03607272 </i>
   </energy>
  </scstep>
  <scstep>
   <time name="dav">    2.45    2.46</time>
   <time name="total">    4.13    4.13</time>
   <energy>
    <i name="e_fr_energy">   -481.69908467 </i>
    <i name="e_wo_entrp">   -481.69096334 </i>
    <i name="e_0_energy">   -481.69502400 </i>
   </energy>
  </scstep>
  <scstep>
   <time name="dav">    2.31    2.31</time>
   <time name="total">    3.95    3.96</time>
   <energy>
    <i name="e_fr_energy">   -483.34575911 </i>
    <i name="e_wo_entrp">   -483.32178903 </i>
    <i name="e_0_energy">   -483.33377407 </i>
   </energy>
  </scstep>
  <scstep>
   <time name="dav">    2.34    2.34</time>
   <time name="total">    4.00    4.00</time>
   <energy>
    <i name="e_fr_energy">   -485.08249716 </i>
    <i name="e_wo_entrp">   -485.06387415 </i>
    <i name="e_0_energy">   -485.07318566 </i>
   </energy>
  </scstep>
  <scstep>
   <time name="dav">    2.19    2.19</time>
   <time name="total">    3.84    3.84</time>
   <energy>
    <i name="e_fr_energy">   -486.55773369 </i>
    <i name="e_wo_entrp">   -486.53137782 </i>
    <i name="e_0_energy">   -486.54455576 </i>
   </energy>
  </scstep>
  <scstep>
   <time name="dav">    2.22    2.22</time>
   <time name="total">    3.87    3.87</time>
   <energy>
    <i name="e_fr_energy">   -488.42637976 </i>
    <i name="e_wo_entrp">   -488.40083176 </i>
    <i name="e_0_energy">   -488.41360576 </i>
   </energy>
  </scstep>
  <scstep>
   <time name="dav">    2.30    2.30</time>
   <time name="total">    3.95    3.96</time>
   <energy>
    <i name="e_fr_energy">   -490.29177139 </i>
    <i name="e_wo_entrp">   -490.28551386 </i>
    <i name="e_0_energy">   -490.28864262 </i>
   </energy>
  </scstep>
  <scstep>
   <time name="dav">    2.30    2.30</time>
   <time name="total">    3.93    3.93</time>
   <energy>
    <i name="e_fr_energy">   -491.36969084 </i>
    <i name="e_wo_entrp">   -491.36773156 </i>
    <i name="e_0_energy">   -491.36871120 </i>
   </energy>
  </scstep>
  <scstep>
   <time name="dav">    2.30    2.30</time>
   <time name="total">    3.96    3.96</time>
   <energy>
    <i name="e_fr_energy">   -493.06528637 </i>
    <i name="e_wo_entrp">   -493.06465061 </i>
    <i name="e_0_energy">   -493.06496849 </i>
   </energy>
  </scstep>
  <scstep>
   <time name="dav">    2.33    2.34</time>
   <time name="total">    3.98    3.98</time>
   <energy>
    <i name="e_fr_energy">   -494.04278023 </i>
    <i name="e_wo_entrp">   -494.04236353 </i>
    <i name="e_0_energy">   -494.04257188 </i>
   </energy>
  </scstep>
  <scstep>
   <time name="dav">    2.42    2.42</time>
   <time name="total">    4.12    4.12</time>
   <energy>
    <i name="e_fr_energy">   -495.15986635 </i>
    <i name="e_wo_entrp">   -495.15933950 </i>
    <i name="e_0_energy">   -495.15960293 </i>
   </energy>
  </scstep>
  <scstep>
   <time name="dav">    2.26    2.26</time>
   <time name="total">    3.93    3.94</time>
   <energy>
    <i name="e_fr_energy">   -495.89833716 </i>
    <i name="e_wo_entrp">   -495.89798708 </i>
    <i name="e_0_energy">   -495.89816212 </i>
   </energy>
  </scstep>
  <scstep>
   <time name="dav">    2.19    2.19</time>
   <time name="total">    3.84    3.84</time>
   <energy>
    <i name="e_fr_energy">   -496.51606382 </i>
    <i name="e_wo_entrp">   -496.51568649 </i>
    <i name="e_0_energy">   -496.51587515 </i>
   </energy>
  </scstep>
  <scstep>
   <time name="dav">    2.34    2.34</time>
   <time name="total">    4.01    4.01</time>
   <energy>
    <i name="e_fr_energy">   -496.87328877 </i>
    <i name="e_wo_entrp">   -496.87291879 </i>
    <i name="e_0_energy">   -496.87310378 </i>
   </energy>
  </scstep>
  <scstep>
   <time name="dav">    2.19    2.19</time>
   <time name="total">    3.84    3.84</time>
   <energy>
    <i name="e_fr_energy">   -497.23140483 </i>
    <i name="e_wo_entrp">   -497.23107995 </i>
    <i name="e_0_energy">   -497.23124239 </i>
   </energy>
  </scstep>
  <scstep>
   <time name="dav">    2.15    2.15</time>
   <time name="total">    3.79    3.79</time>
   <energy>
    <i name="e_fr_energy">   -497.48332765 </i>
    <i name="e_wo_entrp">   -497.48303000 </i>
    <i name="e_0_energy">   -497.48317883 </i>
   </energy>
  </scstep>
  <scstep>
   <time name="dav">    2.19    2.19</time>
   <time name="total">    3.84    3.84</time>
   <energy>
    <i name="e_fr_energy">   -497.62723037 </i>
    <i name="e_wo_entrp">   -497.62696598 </i>
    <i name="e_0_energy">   -497.62709817 </i>
   </energy>
  </scstep>
  <scstep>
   <time name="dav">    2.34    2.34</time>
   <time name="total">    4.00    4.00</time>
   <energy>
    <i name="e_fr_energy">   -497.69972010 </i>
    <i name="e_wo_entrp">   -497.69943672 </i>
    <i name="e_0_energy">   -497.69957841 </i>
   </energy>
  </scstep>
  <scstep>
   <time name="dav">    2.30    2.30</time>
   <time name="total">    3.94    3.94</time>
   <energy>
    <i name="e_fr_energy">   -497.74890421 </i>
    <i name="e_wo_entrp">   -497.74862024 </i>
    <i name="e_0_energy">   -497.74876222 </i>
   </energy>
  </scstep>
  <scstep>
   <time name="dav">    2.22    2.23</time>
   <time name="total">    3.90    3.91</time>
   <energy>
    <i name="e_fr_energy">   -497.82349346 </i>
    <i name="e_wo_entrp">   -497.82319158 </i>
    <i name="e_0_energy">   -497.82334252 </i>
   </energy>
  </scstep>
  <scstep>
   <time name="dav">    2.19    2.19</time>
   <time name="total">    3.83    3.84</time>
   <energy>
    <i name="e_fr_energy">   -497.92686676 </i>
    <i name="e_wo_entrp">   -497.92654882 </i>
    <i name="e_0_energy">   -497.92670779 </i>
   </energy>
  </scstep>
  <scstep>
   <time name="dav">    2.34    2.34</time>
   <time name="total">    3.98    3.98</time>
   <energy>
    <i name="e_fr_energy">   -497.99257337 </i>
    <i name="e_wo_entrp">   -497.99224137 </i>
    <i name="e_0_energy">   -497.99240737 </i>
   </energy>
  </scstep>
  <scstep>
   <time name="dav">    2.22    2.22</time>
   <time name="total">    3.89    3.89</time>
   <energy>
    <i name="e_fr_energy">   -498.01611761 </i>
    <i name="e_wo_entrp">   -498.01577691 </i>
    <i name="e_0_energy">   -498.01594726 </i>
   </energy>
  </scstep>
  <scstep>
   <time name="dav">    2.30    2.30</time>
   <time name="total">    3.93    3.93</time>
   <energy>
    <i name="e_fr_energy">   -498.02588152 </i>
    <i name="e_wo_entrp">   -498.02554298 </i>
    <i name="e_0_energy">   -498.02571225 </i>
   </energy>
  </scstep>
  <scstep>
   <time name="dav">    2.18    2.18</time>
   <time name="total">    3.84    3.84</time>
   <energy>
    <i name="e_fr_energy">   -498.03989021 </i>
    <i name="e_wo_entrp">   -498.03954641 </i>
    <i name="e_0_energy">   -498.03971831 </i>
   </energy>
  </scstep>
  <scstep>
   <time name="dav">    2.24    2.24</time>
   <time name="total">    3.89    3.89</time>
   <energy>
    <i name="e_fr_energy">   -498.04369260 </i>
    <i name="e_wo_entrp">   -498.04334858 </i>
    <i name="e_0_energy">   -498.04352059 </i>
   </energy>
  </scstep>
  <scstep>
   <time name="dav">    2.23    2.23</time>
   <time name="total">    3.88    3.88</time>
   <energy>
    <i name="e_fr_energy">   -498.04511930 </i>
    <i name="e_wo_entrp">   -498.04477279 </i>
    <i name="e_0_energy">   -498.04494605 </i>
   </energy>
  </scstep>
  <scstep>
   <time name="dav">    2.37    2.37</time>
   <time name="total">    4.04    4.04</time>
   <energy>
    <i name="e_fr_energy">   -498.04558930 </i>
    <i name="e_wo_entrp">   -498.04524214 </i>
    <i name="e_0_energy">   -498.04541572 </i>
   </energy>
  </scstep>
  <scstep>
   <time name="dav">    2.18    2.18</time>
   <time name="total">    3.84    3.85</time>
   <energy>
    <i name="e_fr_energy">   -498.04636032 </i>
    <i name="e_wo_entrp">   -498.04601375 </i>
    <i name="e_0_energy">   -498.04618703 </i>
   </energy>
  </scstep>
  <scstep>
   <time name="dav">    2.26    2.26</time>
   <time name="total">    3.91    3.91</time>
   <energy>
    <i name="e_fr_energy">   -498.04696527 </i>
    <i name="e_wo_entrp">   -498.04661672 </i>
    <i name="e_0_energy">   -498.04679099 </i>
   </energy>
  </scstep>
  <scstep>
   <time name="dav">    2.38    2.38</time>
   <time name="total">    4.06    4.07</time>
   <energy>
    <i name="e_fr_energy">   -498.04769133 </i>
    <i name="e_wo_entrp">   -498.04734225 </i>
    <i name="e_0_energy">   -498.04751679 </i>
   </energy>
  </scstep>
  <scstep>
   <time name="dav">    2.19    2.19</time>
   <time name="total">    3.84    3.85</time>
   <energy>
    <i name="e_fr_energy">   -498.04790901 </i>
    <i name="e_wo_entrp">   -498.04755955 </i>
    <i name="e_0_energy">   -498.04773428 </i>
   </energy>
  </scstep>
  <scstep>
   <time name="dav">    2.22    2.22</time>
   <time name="total">    3.89    3.90</time>
   <energy>
    <i name="e_fr_energy">   -498.04819347 </i>
    <i name="e_wo_entrp">   -498.04784393 </i>
    <i name="e_0_energy">   -498.04801870 </i>
   </energy>
  </scstep>
  <scstep>
   <time name="dav">    2.07    2.07</time>
   <time name="total">    3.73    3.73</time>
   <energy>
    <i name="e_fr_energy">   -498.04846269 </i>
    <i name="e_wo_entrp">   -498.04811244 </i>
    <i name="e_0_energy">   -498.04828756 </i>
   </energy>
  </scstep>
  <scstep>
   <time name="dav">    1.76    1.76</time>
   <time name="total">    3.42    3.42</time>
   <energy>
    <i name="e_fr_energy">   -498.04862190 </i>
    <i name="e_wo_entrp">   -498.04827143 </i>
    <i name="e_0_energy">   -498.04844666 </i>
   </energy>
  </scstep>
  <scstep>
   <time name="dav">    2.13    2.13</time>
   <time name="total">    3.78    3.79</time>
   <energy>
    <i name="e_fr_energy">   -498.04859299 </i>
    <i name="e_wo_entrp">   -498.04824250 </i>
    <i name="e_0_energy">   -498.04841775 </i>
   </energy>
  </scstep>
  <scstep>
   <time name="dav">    1.81    1.81</time>
   <time name="total">    3.45    3.45</time>
   <energy>
    <i name="e_fr_energy">   -498.04868275 </i>
    <i name="e_wo_entrp">   -498.04833195 </i>
    <i name="e_0_energy">   -498.04850735 </i>
   </energy>
  </scstep>
  <scstep>
   <time name="dav">    1.55    1.55</time>
   <time name="total">    3.21    3.22</time>
   <energy>
    <i name="e_fr_energy">   -498.04876596 </i>
    <i name="e_wo_entrp">   -498.04841526 </i>
    <i name="e_0_energy">   -498.04859061 </i>
   </energy>
  </scstep>
  <scstep>
   <time name="dav">    1.45    1.45</time>
   <time name="total">    3.11    3.11</time>
   <energy>
    <i name="e_fr_energy">   -498.04880593 </i>
    <i name="e_wo_entrp">   -498.04845530 </i>
    <i name="e_0_energy">   -498.04863062 </i>
   </energy>
  </scstep>
  <scstep>
   <time name="dav">    1.24    1.24</time>
   <time name="total">    2.88    2.88</time>
   <energy>
    <i name="e_fr_energy">   -498.04881647 </i>
    <i name="e_wo_entrp">   -498.04846586 </i>
    <i name="e_0_energy">   -498.04864117 </i>
   </energy>
  </scstep>
  <scstep>
   <time name="dav">    1.28    1.28</time>
   <time name="total">    2.94    2.94</time>
   <energy>
    <i name="e_fr_energy">   -498.04882763 </i>
    <i name="e_wo_entrp">   -498.04847704 </i>
    <i name="e_0_energy">   -498.04865234 </i>
   </energy>
  </scstep>
  <scstep>
   <time name="dav">    1.44    1.44</time>
   <time name="total">    3.09    3.09</time>
   <energy>
    <i name="e_fr_energy">   -498.04884298 </i>
    <i name="e_wo_entrp">   -498.04849243 </i>
    <i name="e_0_energy">   -498.04866770 </i>
   </energy>
  </scstep>
  <scstep>
   <time name="dav">    1.27    1.27</time>
   <time name="total">    2.94    2.94</time>
   <energy>
    <i name="e_fr_energy">   -498.04885186 </i>
    <i name="e_wo_entrp">   -498.04850137 </i>
    <i name="e_0_energy">   -498.04867662 </i>
   </energy>
  </scstep>
  <scstep>
   <time name="dav">    1.38    1.38</time>
   <time name="total">    3.05    3.05</time>
   <energy>
    <i name="e_fr_energy">   -498.04886006 </i>
    <i name="e_wo_entrp">   -498.04850963 </i>
    <i name="e_0_energy">   -498.04868484 </i>
   </energy>
  </scstep>
  <scstep>
   <time name="dav">    1.27    1.27</time>
   <time name="total">    2.92    2.92</time>
   <energy>
    <i name="e_fr_energy">   -498.04886492 </i>
    <i name="e_wo_entrp">   -498.04851452 </i>
    <i name="e_0_energy">   -498.04868972 </i>
   </energy>
  </scstep>
  <scstep>
   <time name="dav">    1.25    1.25</time>
   <time name="total">    2.89    2.90</time>
   <energy>
    <i name="e_fr_energy">   -498.04886661 </i>
    <i name="e_wo_entrp">   -498.04851624 </i>
    <i name="e_0_energy">   -498.04869142 </i>
   </energy>
  </scstep>
  <scstep>
   <time name="dav">    1.24    1.24</time>
   <time name="total">    2.89    2.89</time>
   <energy>
    <i name="e_fr_energy">   -498.04886837 </i>
    <i name="e_wo_entrp">   -498.04851800 </i>
    <i name="e_0_energy">   -498.04869318 </i>
   </energy>
  </scstep>
  <scstep>
   <time name="dav">    1.13    1.13</time>
   <time name="total">    2.79    2.80</time>
   <energy>
    <i name="e_fr_energy">   -498.04886958 </i>
    <i name="e_wo_entrp">   -498.04851920 </i>
    <i name="e_0_energy">   -498.04869439 </i>
   </energy>
  </scstep>
  <scstep>
   <time name="dav">    1.13    1.13</time>
   <time name="total">    2.19    2.19</time>
   <energy>
    <i name="alphaZ">   1011.17032867 </i>
    <i name="ewald"> 123827.45758914 </i>
    <i name="hartreedc">-162898.84953341 </i>
    <i name="XCdc">   1512.39020641 </i>
    <i name="pawpsdc">  40465.51087565 </i>
    <i name="pawaedc"> -39992.62963921 </i>
    <i name="eentropy">     -0.00035038 </i>
    <i name="bandstr">  -6729.03007429 </i>
    <i name="atom">  42305.93172720 </i>
    <i name="e_fr_energy">   -498.04887023 </i>
    <i name="e_wo_entrp">   -498.04851984 </i>
    <i name="e_0_energy">   -498.04869503 </i>
   </energy>
  </scstep>
  <structure>
   <crystal>
    <varray name="basis" >
     <v>      11.59819984       0.00000000       0.00000000 </v>
     <v>      -5.79909992      10.04433570       0.00000000 </v>
     <v>       0.00000000       0.00000000      21.04820061 </v>
    </varray>
    <i name="volume">   2452.03565684 </i>
    <varray name="rec_basis" >
     <v>       0.08622028       0.04977930       0.00000000 </v>
     <v>       0.00000000       0.09955860       0.00000000 </v>
     <v>       0.00000000       0.00000000       0.04751000 </v>
    </varray>
   </crystal>
   <varray name="positions" >
    <v>       0.00000000       0.00000000       0.45993000 </v>
    <v>       0.22222000       0.11111000       0.30996000 </v>
    <v>       0.33333000       0.00000000       0.45993000 </v>
    <v>       0.55556000       0.11111000       0.30996000 </v>
    <v>       0.66667000       0.00000000       0.45993000 </v>
    <v>       0.88889000       0.11111000       0.30996000 </v>
    <v>       0.00000000       0.33333000       0.45993000 </v>
    <v>       0.22222000       0.44444000       0.30996000 </v>
    <v>       0.33333000       0.33333000       0.45993000 </v>
    <v>       0.55556000       0.44444000       0.30996000 </v>
    <v>       0.66667000       0.33333000       0.45993000 </v>
    <v>       0.88889000       0.44444000       0.30996000 </v>
    <v>       0.00000000       0.66667000       0.45993000 </v>
    <v>       0.22222000       0.77778000       0.30996000 </v>
    <v>       0.33333000       0.66667000       0.45993000 </v>
    <v>       0.55556000       0.77778000       0.30996000 </v>
    <v>       0.66667000       0.66667000       0.45993000 </v>
    <v>       0.88889000       0.77778000       0.30996000 </v>
    <v>       0.00000000       0.00000000       0.57241000 </v>
    <v>       0.11111000       0.22222000       0.27247000 </v>
    <v>       0.22222000       0.11111000       0.42244000 </v>
    <v>       0.11111000       0.22222000       0.49742000 </v>
    <v>       0.00000000       0.00000000       0.34745000 </v>
    <v>       0.33333000       0.00000000       0.57241000 </v>
    <v>       0.44444000       0.22222000       0.27247000 </v>
    <v>       0.55556000       0.11111000       0.42244000 </v>
    <v>       0.44444000       0.22222000       0.49742000 </v>
    <v>       0.33333000       0.00000000       0.34745000 </v>
    <v>       0.66667000       0.00000000       0.57241000 </v>
    <v>       0.77778000       0.22222000       0.27247000 </v>
    <v>       0.88889000       0.11111000       0.42244000 </v>
    <v>       0.77778000       0.22222000       0.49742000 </v>
    <v>       0.66667000       0.00000000       0.34745000 </v>
    <v>       0.00000000       0.33333000       0.57241000 </v>
    <v>       0.11111000       0.55556000       0.27247000 </v>
    <v>       0.22222000       0.44444000       0.42244000 </v>
    <v>       0.11111000       0.55556000       0.49742000 </v>
    <v>       0.00000000       0.33333000       0.34745000 </v>
    <v>       0.33333000       0.33333000       0.57241000 </v>
    <v>       0.44444000       0.55556000       0.27247000 </v>
    <v>       0.55556000       0.44444000       0.42244000 </v>
    <v>       0.44444000       0.55556000       0.49742000 </v>
    <v>       0.33333000       0.33333000       0.34745000 </v>
    <v>       0.66667000       0.33333000       0.57241000 </v>
    <v>       0.77778000       0.55556000       0.27247000 </v>
    <v>       0.88889000       0.44444000       0.42244000 </v>
    <v>       0.77778000       0.55556000       0.49742000 </v>
    <v>       0.66667000       0.33333000       0.34745000 </v>
    <v>       0.00000000       0.66667000       0.57241000 </v>
    <v>       0.11111000       0.88889000       0.27247000 </v>
    <v>       0.22222000       0.77778000       0.42244000 </v>
    <v>       0.11111000       0.88889000       0.49742000 </v>
    <v>       0.00000000       0.66667000       0.34745000 </v>
    <v>       0.33333000       0.66667000       0.57241000 </v>
    <v>       0.44444000       0.88889000       0.27247000 </v>
    <v>       0.55556000       0.77778000       0.42244000 </v>
    <v>       0.44444000       0.88889000       0.49742000 </v>
    <v>       0.33333000       0.66667000       0.34745000 </v>
    <v>       0.66667000       0.66667000       0.57241000 </v>
    <v>       0.77778000       0.88889000       0.27247000 </v>
    <v>       0.88889000       0.77778000       0.42244000 </v>
    <v>       0.77778000       0.88889000       0.49742000 </v>
    <v>       0.66667000       0.66667000       0.34745000 </v>
    <v>       0.41995000       0.90566000       0.63222000 </v>
    <v>       0.56244000       0.76382000       0.64172000 </v>
    <v>       0.55931000       0.77277000       0.51616000 </v>
    <v>       0.42431000       0.57633000       0.63422000 </v>
    <v>       0.55313000       0.44676000       0.64709000 </v>
    <v>       0.56544000       0.43664000       0.51651000 </v>
    <v>       0.49197000       0.83062000       0.57349000 </v>
    <v>       0.49190000       0.50494000       0.57828000 </v>
   </varray>
  </structure>
  <varray name="forces" >
   <v>      -0.23571912       0.11375359       0.33965315 </v>
   <v>      -0.08220959      -0.09848385      -0.17614624 </v>
   <v>      -0.80683336       0.40685178       0.15902302 </v>
   <v>       0.01761154       0.09170524      -0.19197230 </v>
   <v>       1.51611219       1.50665708      -0.21381982 </v>
   <v>       0.06563009       0.08001102      -0.05295185 </v>
   <v>      -0.24527005      -0.12035333       0.44024746 </v>
   <v>      -0.17749892      -0.14026359      -0.24722402 </v>
   <v>      -0.62837491      -1.85632516      -0.24089755 </v>
   <v>       0.10405092      -0.09150800      -0.48910215 </v>
   <v>       0.85088764      -0.41411693       0.20769646 </v>
   <v>       0.04152231      -0.02046209      -0.05142642 </v>
   <v>       0.11647922      -0.08996038       0.23127163 </v>
   <v>      -0.16742265      -0.00748187      -0.27504773 </v>
   <v>      -1.63962541      -1.33658263      -1.01771234 </v>
   <v>       0.00120170       0.12367245      -0.56573927 </v>
   <v>       1.62708474       1.26878590      -0.06115657 </v>
   <v>       0.14647727       0.09508067      -0.12874512 </v>
   <v>      -0.02523646       0.02294257       0.06880150 </v>
   <v>       0.04402176       0.04991446       0.01713885 </v>
   <v>       0.10775277       0.12974762      -0.30447409 </v>
   <v>      -0.07404319      -0.01745207      -0.20387524 </v>
   <v>       0.01791237      -0.01345805      -0.03112563 </v>
   <v>       0.15560649      -0.16669789       0.60993484 </v>
   <v>      -0.00740967       0.03506172       0.02004929 </v>
   <v>      -0.06316995      -0.31451795      -0.22977628 </v>
   <v>      -0.08367108      -1.06782275      -0.35456194 </v>
   <v>       0.01705217      -0.01873929       0.15385989 </v>
   <v>      -0.79132706      -1.13462965       0.15227156 </v>
   <v>      -0.03701066      -0.03231165       0.01650868 </v>
   <v>      -0.10914804      -0.07234294      -0.43767807 </v>
   <v>      -0.02933910       0.08330145      -0.18580590 </v>
   <v>      -0.03635049      -0.12146646       0.17303284 </v>
   <v>      -0.01875931      -0.01690788       0.03932311 </v>
   <v>       0.06883658       0.03733386       0.02165253 </v>
   <v>       0.32372383       0.32905505      -0.18827324 </v>
   <v>       0.00238751       0.10161141      -0.24178328 </v>
   <v>       0.05905190       0.03759074      -0.03807008 </v>
   <v>       0.07556439       1.20425754      -0.24190330 </v>
   <v>       0.01839670       0.02917378       0.03192643 </v>
   <v>      -0.57197176       0.33816560      -3.08767068 </v>
   <v>      -1.10801487      -0.68083036      -0.07240958 </v>
   <v>       0.06895607       0.07318555       0.23930949 </v>
   <v>       0.22791702      -0.12435075       0.31624676 </v>
   <v>      -0.08576333       0.00316488       0.02276871 </v>
   <v>      -0.06518846       0.08605517      -0.39488809 </v>
   <v>       0.84422291       0.59290859      -0.29908841 </v>
   <v>      -0.14558547       0.03241686       0.03112640 </v>
   <v>       0.03836461       0.01232214       0.05882085 </v>
   <v>       0.02915777      -0.00343082       0.01397183 </v>
   <v>       0.27016806       0.12517555      -0.15263987 </v>
   <v>       0.15028245      -0.04572982       0.05489796 </v>
   <v>       0.02548414       0.03964967       0.01844125 </v>
   <v>       0.00147388       0.20772596       0.29204393 </v>
   <v>       0.04006026      -0.04751126       0.03242546 </v>
   <v>      -0.53508214      -0.02968360      -3.20284541 </v>
   <v>      -1.67515492       0.75916277      -0.88288389 </v>
   <v>       0.08315251       0.02399071       0.36930399 </v>
   <v>      -1.54383982      -1.12296959       0.22432078 </v>
   <v>      -0.07083180      -0.07829858       0.02151243 </v>
   <v>      -0.10398537      -0.16178017      -0.34262790 </v>
   <v>       0.93122119       0.74707830      -0.58958983 </v>
   <v>      -0.15532972      -0.00924478       0.29001106 </v>
   <v>       1.47754529      -0.69274542      -2.22825805 </v>
   <v>      -1.47461817      -0.12739657      -0.94383201 </v>
   <v>       2.61857169      -1.11868481       0.78461930 </v>
   <v>       0.12418258       0.80313607      -0.13723039 </v>
   <v>      -0.95254566       0.47187926      -1.17167488 </v>
   <v>       0.27178776      -0.28872449       3.00123886 </v>
   <v>      -1.80057922       3.14295189       7.51817158 </v>
   <v>       2.96699743      -1.52221150       3.70328554 </v>
  </varray>
  <varray name="stress" >
   <v>      -8.42526766      -1.94117321      -0.93697878 </v>
   <v>      -1.94117029      -7.22685161       0.69474514 </v>
   <v>      -0.93679750       0.69463707      15.79654924 </v>
  </varray>
  <energy>
   <i name="e_fr_energy">   -498.04887023 </i>
   <i name="e_wo_entrp">   -498.04851984 </i>
   <i name="e_0_energy">   -498.04869503 </i>
  </energy>
  <time name="totalsc">  241.98  242.18</time>
 </calculation>
 <calculation>
  <scstep>
   <time name="dav">    1.63    1.63</time>
   <time name="total">    3.32    3.33</time>
   <energy>
    <i name="alphaZ">   1011.17032867 </i>
    <i name="ewald"> 122829.15194079 </i>
    <i name="hartreedc">-161880.95541953 </i>
    <i name="XCdc">   1512.36850936 </i>
    <i name="pawpsdc">  40465.51114850 </i>
    <i name="pawaedc"> -39992.62993882 </i>
    <i name="eentropy">     -0.01595215 </i>
    <i name="bandstr">  -6740.98765744 </i>
    <i name="atom">  42305.93172720 </i>
    <i name="e_fr_energy">   -490.45531342 </i>
    <i name="e_wo_entrp">   -490.43936127 </i>
    <i name="e_0_energy">   -490.44733735 </i>
   </energy>
  </scstep>
  <scstep>
   <time name="dav">    2.14    2.14</time>
   <time name="total">    3.80    3.80</time>
   <energy>
    <i name="e_fr_energy">   -499.19567707 </i>
    <i name="e_wo_entrp">   -499.18614248 </i>
    <i name="e_0_energy">   -499.19090978 </i>
   </energy>
  </scstep>
  <scstep>
   <time name="dav">    2.27    2.27</time>
   <time name="total">    3.92    3.93</time>
   <energy>
    <i name="e_fr_energy">   -498.12691300 </i>
    <i name="e_wo_entrp">   -498.12594322 </i>
    <i name="e_0_energy">   -498.12642811 </i>
   </energy>
  </scstep>
  <scstep>
   <time name="dav">    2.30    2.30</time>
   <time name="total">    3.98    3.99</time>
   <energy>
    <i name="e_fr_energy">   -497.82862042 </i>
    <i name="e_wo_entrp">   -497.81147395 </i>
    <i name="e_0_energy">   -497.82004718 </i>
   </energy>
  </scstep>
  <scstep>
   <time name="dav">    2.22    2.22</time>
   <time name="total">    3.88    3.88</time>
   <energy>
    <i name="e_fr_energy">   -500.11168876 </i>
    <i name="e_wo_entrp">   -500.11073956 </i>
    <i name="e_0_energy">   -500.11121416 </i>
   </energy>
  </scstep>
  <scstep>
   <time name="dav">    2.45    2.45</time>
   <time name="total">    4.10    4.11</time>
   <energy>
    <i name="e_fr_energy">   -497.93277240 </i>
    <i name="e_wo_entrp">   -497.93236168 </i>
    <i name="e_0_energy">   -497.93256704 </i>
   </energy>
  </scstep>
  <scstep>
   <time name="dav">    2.08    2.08</time>
   <time name="total">    3.75    3.75</time>
   <energy>
    <i name="e_fr_energy">   -497.71229679 </i>
    <i name="e_wo_entrp">   -497.71186971 </i>
    <i name="e_0_energy">   -497.71208325 </i>
   </energy>
  </scstep>
  <scstep>
   <time name="dav">    2.27    2.27</time>
   <time name="total">    3.94    3.94</time>
   <energy>
    <i name="e_fr_energy">   -497.59144044 </i>
    <i name="e_wo_entrp">   -497.59110351 </i>
    <i name="e_0_energy">   -497.59127197 </i>
   </energy>
  </scstep>
  <scstep>
   <time name="dav">    2.38    2.38</time>
   <time name="total">    4.04    4.04</time>
   <energy>
    <i name="e_fr_energy">   -497.56908367 </i>
    <i name="e_wo_entrp">   -497.56864010 </i>
    <i name="e_0_energy">   -497.56886188 </i>
   </energy>
  </scstep>
  <scstep>
   <time name="dav">    2.11    2.11</time>
   <time name="total">    3.77    3.78</time>
   <energy>
    <i name="e_fr_energy">   -497.57180585 </i>
    <i name="e_wo_entrp">   -497.57159811 </i>
    <i name="e_0_energy">   -497.57170198 </i>
   </energy>
  </scstep>
  <scstep>
   <time name="dav">    2.15    2.15</time>
   <time name="total">    3.80    3.80</time>
   <energy>
    <i name="e_fr_energy">   -497.57498911 </i>
    <i name="e_wo_entrp">   -497.57482693 </i>
    <i name="e_0_energy">   -497.57490802 </i>
   </energy>
  </scstep>
  <scstep>
   <time name="dav">    2.30    2.31</time>
   <time name="total">    3.98    3.98</time>
   <energy>
    <i name="e_fr_energy">   -497.57834470 </i>
    <i name="e_wo_entrp">   -497.57815422 </i>
    <i name="e_0_energy">   -497.57824946 </i>
   </energy>
  </scstep>
  <scstep>
   <time name="dav">    2.27    2.27</time>
   <time name="total">    3.89    3.90</time>
   <energy>
    <i name="e_fr_energy">   -497.58278962 </i>
    <i name="e_wo_entrp">   -497.58262127 </i>
    <i name="e_0_energy">   -497.58270544 </i>
   </energy>
  </scstep>
  <scstep>
   <time name="dav">    2.15    2.15</time>
   <time name="total">    3.80    3.80</time>
   <energy>
    <i name="e_fr_energy">   -497.58344992 </i>
    <i name="e_wo_entrp">   -497.58328672 </i>
    <i name="e_0_energy">   -497.58336832 </i>
   </energy>
  </scstep>
  <scstep>
   <time name="dav">    2.14    2.14</time>
   <time name="total">    3.81    3.81</time>
   <energy>
    <i name="e_fr_energy">   -497.58634653 </i>
    <i name="e_wo_entrp">   -497.58618853 </i>
    <i name="e_0_energy">   -497.58626753 </i>
   </energy>
  </scstep>
  <scstep>
   <time name="dav">    2.15    2.15</time>
   <time name="total">    3.80    3.80</time>
   <energy>
    <i name="e_fr_energy">   -497.58893274 </i>
    <i name="e_wo_entrp">   -497.58875247 </i>
    <i name="e_0_energy">   -497.58884260 </i>
   </energy>
  </scstep>
  <scstep>
   <time name="dav">    2.12    2.12</time>
   <time name="total">    3.77    3.77</time>
   <energy>
    <i name="e_fr_energy">   -497.59104979 </i>
    <i name="e_wo_entrp">   -497.59086073 </i>
    <i name="e_0_energy">   -497.59095526 </i>
   </energy>
  </scstep>
  <scstep>
   <time name="dav">    2.26    2.26</time>
   <time name="total">    3.92    3.92</time>
   <energy>
    <i name="e_fr_energy">   -497.59311748 </i>
    <i name="e_wo_entrp">   -497.59291433 </i>
    <i name="e_0_energy">   -497.59301591 </i>
   </energy>
  </scstep>
  <scstep>
   <time name="dav">    2.10    2.10</time>
   <time name="total">    3.79    3.79</time>
   <energy>
    <i name="e_fr_energy">   -497.59488578 </i>
    <i name="e_wo_entrp">   -497.59467653 </i>
    <i name="e_0_energy">   -497.59478115 </i>
   </energy>
  </scstep>
  <scstep>
   <time name="dav">    2.15    2.15</time>
   <time name="total">    3.83    3.84</time>
   <energy>
    <i name="e_fr_energy">   -497.59612319 </i>
    <i name="e_wo_entrp">   -497.59591475 </i>
    <i name="e_0_energy">   -497.59601897 </i>
   </energy>
  </scstep>
  <scstep>
   <time name="dav">    2.27    2.27</time>
   <time name="total">    3.92    3.92</time>
   <energy>
    <i name="e_fr_energy">   -497.59664017 </i>
    <i name="e_wo_entrp">   -497.59642922 </i>
    <i name="e_0_energy">   -497.59653470 </i>
   </energy>
  </scstep>
  <scstep>
   <time name="dav">    2.11    2.11</time>
   <time name="total">    3.78    3.79</time>
   <energy>
    <i name="e_fr_energy">   -497.59726947 </i>
    <i name="e_wo_entrp">   -497.59705669 </i>
    <i name="e_0_energy">   -497.59716308 </i>
   </energy>
  </scstep>
  <scstep>
   <time name="dav">    2.07    2.07</time>
   <time name="total">    3.73    3.73</time>
   <energy>
    <i name="e_fr_energy">   -497.59796602 </i>
    <i name="e_wo_entrp">   -497.59774917 </i>
    <i name="e_0_energy">   -497.59785759 </i>
   </energy>
  </scstep>
  <scstep>
   <time name="dav">    2.07    2.07</time>
   <time name="total">    3.75    3.75</time>
   <energy>
    <i name="e_fr_energy">   -497.59830068 </i>
    <i name="e_wo_entrp">   -497.59808513 </i>
    <i name="e_0_energy">   -497.59819290 </i>
   </energy>
  </scstep>
  <scstep>
   <time name="dav">    2.08    2.08</time>
   <time name="total">    3.75    3.75</time>
   <energy>
    <i name="e_fr_energy">   -497.59855981 </i>
    <i name="e_wo_entrp">   -497.59834391 </i>
    <i name="e_0_energy">   -497.59845186 </i>
   </energy>
  </scstep>
  <scstep>
   <time name="dav">    1.79    1.79</time>
   <time name="total">    3.45    3.46</time>
   <energy>
    <i name="e_fr_energy">   -497.59871245 </i>
    <i name="e_wo_entrp">   -497.59849620 </i>
    <i name="e_0_energy">   -497.59860433 </i>
   </energy>
  </scstep>
  <scstep>
   <time name="dav">    1.86    1.86</time>
   <time name="total">    3.50    3.50</time>
   <energy>
    <i name="e_fr_energy">   -497.59891561 </i>
    <i name="e_wo_entrp">   -497.59869977 </i>
    <i name="e_0_energy">   -497.59880769 </i>
   </energy>
  </scstep>
  <scstep>
   <time name="dav">    1.78    1.78</time>
   <time name="total">    3.44    3.45</time>
   <energy>
    <i name="e_fr_energy">   -497.59915393 </i>
    <i name="e_wo_entrp">   -497.59893798 </i>
    <i name="e_0_energy">   -497.59904595 </i>
   </energy>
  </scstep>
  <scstep>
   <time name="dav">    1.72    1.72</time>
   <time name="total">    3.40    3.40</time>
   <energy>
    <i name="e_fr_energy">   -497.59929277 </i>
    <i name="e_wo_entrp">   -497.59907653 </i>
    <i name="e_0_energy">   -497.59918465 </i>
   </energy>
  </scstep>
  <scstep>
   <time name="dav">    1.48    1.48</time>
   <time name="total">    3.11    3.11</time>
   <energy>
    <i name="e_fr_energy">   -497.59934231 </i>
    <i name="e_wo_entrp">   -497.59912620 </i>
    <i name="e_0_energy">   -497.59923425 </i>
   </energy>
  </scstep>
  <scstep>
   <time name="dav">    1.55    1.55</time>
   <time name="total">    3.23    3.23</time>
   <energy>
    <i name="e_fr_energy">   -497.59938699 </i>
    <i name="e_wo_entrp">   -497.59917079 </i>
    <i name="e_0_energy">   -497.59927889 </i>
   </energy>
  </scstep>
  <scstep>
   <time name="dav">    1.55    1.55</time>
   <time name="total">    3.20    3.20</time>
   <energy>
    <i name="e_fr_energy">   -497.59944020 </i>
    <i name="e_wo_entrp">   -497.59922374 </i>
    <i name="e_0_energy">   -497.59933197 </i>
   </energy>
  </scstep>
  <scstep>
   <time name="dav">    1.54    1.54</time>
   <time name="total">    3.21    3.21</time>
   <energy>
    <i name="e_fr_energy">   -497.59947020 </i>
    <i name="e_wo_entrp">   -497.59925406 </i>
    <i name="e_0_energy">   -497.59936213 </i>
   </energy>
  </scstep>
  <scstep>
   <time name="dav">    1.42    1.42</time>
   <time name="total">    3.05    3.05</time>
   <energy>
    <i name="e_fr_energy">   -497.59948391 </i>
    <i name="e_wo_entrp">   -497.59926773 </i>
    <i name="e_0_energy">   -497.59937582 </i>
   </energy>
  </scstep>
  <scstep>
   <time name="dav">    1.31    1.31</time>
   <time name="total">    2.95    2.95</time>
   <energy>
    <i name="e_fr_energy">   -497.59948756 </i>
    <i name="e_wo_entrp">   -497.59927143 </i>
    <i name="e_0_energy">   -497.59937950 </i>
   </energy>
  </scstep>
  <scstep>
   <time name="dav">    1.27    1.27</time>
   <time name="total">    2.94    2.94</time>
   <energy>
    <i name="e_fr_energy">   -497.59948893 </i>
    <i name="e_wo_entrp">   -497.59927282 </i>
    <i name="e_0_energy">   -497.59938088 </i>
   </energy>
  </scstep>
  <scstep>
   <time name="dav">    1.24    1.24</time>
   <time name="total">    2.90    2.91</time>
   <energy>
    <i name="e_fr_energy">   -497.59949011 </i>
    <i name="e_wo_entrp">   -497.59927401 </i>
    <i name="e_0_energy">   -497.59938206 </i>
   </energy>
  </scstep>
  <scstep>
   <time name="dav">    1.24    1.24</time>
   <time name="total">    2.89    2.90</time>
   <energy>
    <i name="e_fr_energy">   -497.59949138 </i>
    <i name="e_wo_entrp">   -497.59927527 </i>
    <i name="e_0_energy">   -497.59938332 </i>
   </energy>
  </scstep>
  <scstep>
   <time name="dav">    1.24    1.25</time>
   <time name="total">    2.90    2.91</time>
   <energy>
    <i name="e_fr_energy">   -497.59949240 </i>
    <i name="e_wo_entrp">   -497.59927632 </i>
    <i name="e_0_energy">   -497.59938436 </i>
   </energy>
  </scstep>
  <scstep>
   <time name="dav">    1.24    1.24</time>
   <time name="total">    2.29    2.29</time>
   <energy>
    <i name="alphaZ">   1011.17032867 </i>
    <i name="ewald"> 122829.15194079 </i>
    <i name="hartreedc">-162016.88942233 </i>
    <i name="XCdc">   1513.51421684 </i>
    <i name="pawpsdc">  41534.10789156 </i>
    <i name="pawaedc"> -41061.43252192 </i>
    <i name="eentropy">     -0.00021609 </i>
    <i name="bandstr">  -6613.15343764 </i>
    <i name="atom">  42305.93172720 </i>
    <i name="e_fr_energy">   -497.59949293 </i>
    <i name="e_wo_entrp">   -497.59927684 </i>
    <i name="e_0_energy">   -497.59938488 </i>
   </energy>
  </scstep>
  <structure>
   <crystal>
    <varray name="basis" >
     <v>      11.59819984       0.00000000       0.00000000 </v>
     <v>      -5.79909992      10.04433570       0.00000000 </v>
     <v>       0.00000000       0.00000000      21.04820061 </v>
    </varray>
    <i name="volume">   2452.03565684 </i>
    <varray name="rec_basis" >
     <v>       0.08622028       0.04977930       0.00000000 </v>
     <v>       0.00000000       0.09955860       0.00000000 </v>
     <v>       0.00000000       0.00000000       0.04751000 </v>
    </varray>
   </crystal>
   <varray name="positions" >
    <v>       0.99929271       0.00054636       0.46070849 </v>
    <v>       0.22164154       0.11063698       0.30955627 </v>
    <v>       0.33095103       0.00195410       0.46029448 </v>
    <v>       0.55585348       0.11155046       0.30952000 </v>
    <v>       0.67659448       0.00723643       0.45943992 </v>
    <v>       0.88935513       0.11149429       0.30983863 </v>
    <v>       0.99869077       0.33275195       0.46093905 </v>
    <v>       0.22114485       0.44376632       0.30939336 </v>
    <v>       0.32625834       0.32441412       0.45937786 </v>
    <v>       0.55577304       0.44400049       0.30883897 </v>
    <v>       0.66921477       0.33134101       0.46040604 </v>
    <v>       0.88901357       0.44434172       0.30984213 </v>
    <v>       0.00026846       0.66623792       0.46046008 </v>
    <v>       0.22150564       0.77774406       0.30932959 </v>
    <v>       0.32330020       0.66025043       0.45759739 </v>
    <v>       0.55586200       0.77837400       0.30866332 </v>
    <v>       0.67648482       0.67276394       0.45978983 </v>
    <v>       0.88972761       0.77823667       0.30966492 </v>
    <v>       0.99995013       0.00011019       0.57256769 </v>
    <v>       0.11141298       0.22245974       0.27250928 </v>
    <v>       0.22297978       0.11173317       0.42174214 </v>
    <v>       0.11076011       0.22213618       0.49695272 </v>
    <v>       0.00004219       0.99993536       0.34737866 </v>
    <v>       0.33357692       0.99919935       0.57380798 </v>
    <v>       0.44449338       0.22238840       0.27251595 </v>
    <v>       0.55454193       0.10959938       0.42191335 </v>
    <v>       0.44152761       0.21709128       0.49660734 </v>
    <v>       0.33335593       0.99991000       0.34780265 </v>
    <v>       0.66065368       0.99455041       0.57275901 </v>
    <v>       0.77754846       0.22206481       0.27250784 </v>
    <v>       0.88826227       0.11076254       0.42143684 </v>
    <v>       0.77785801       0.22262009       0.49699413 </v>
    <v>       0.66622710       0.99941660       0.34784659 </v>
    <v>       0.99988137       0.33324879       0.57250013 </v>
    <v>       0.11148598       0.55573931       0.27251963 </v>
    <v>       0.22435675       0.44602044       0.42200848 </v>
    <v>       0.11136395       0.55604804       0.49686583 </v>
    <v>       0.00033590       0.33351055       0.34736274 </v>
    <v>       0.33653632       0.33911401       0.57185556 </v>
    <v>       0.44458658       0.55570012       0.27254318 </v>
    <v>       0.55399299       0.44606420       0.41536303 </v>
    <v>       0.43819621       0.55228999       0.49725404 </v>
    <v>       0.33379258       0.33368151       0.34799850 </v>
    <v>       0.66731939       0.33273275       0.57313484 </v>
    <v>       0.77743087       0.55557520       0.27252219 </v>
    <v>       0.88882551       0.44485332       0.42153491 </v>
    <v>       0.78271540       0.55840772       0.49673449 </v>
    <v>       0.66614229       0.33348570       0.34752134 </v>
    <v>       0.00018917       0.66672918       0.57254482 </v>
    <v>       0.11122304       0.88887352       0.27250202 </v>
    <v>       0.22364437       0.77838121       0.42209015 </v>
    <v>       0.11162528       0.88867036       0.49754583 </v>
    <v>       0.00020122       0.66686044       0.34749227 </v>
    <v>       0.33383498       0.66766770       0.57307937 </v>
    <v>       0.44449253       0.88866180       0.27254432 </v>
    <v>       0.55326304       0.77763743       0.41509905 </v>
    <v>       0.43929532       0.89253624       0.49539642 </v>
    <v>       0.33373349       0.66678523       0.34829645 </v>
    <v>       0.65755161       0.66127641       0.57292415 </v>
[...]
    <i name="e_0_energy">   -502.25899053 </i>
   </energy>
  </scstep>
  <scstep>
   <time name="dav">    2.45    2.45</time>
   <time name="total">    4.12    4.12</time>
   <energy>
    <i name="e_fr_energy">   -502.25934191 </i>
    <i name="e_wo_entrp">   -502.25934076 </i>
    <i name="e_0_energy">   -502.25934133 </i>
   </energy>
  </scstep>
  <scstep>
   <time name="dav">    2.08    2.08</time>
   <time name="total">    3.72    3.72</time>
   <energy>
    <i name="e_fr_energy">   -502.25978751 </i>
    <i name="e_wo_entrp">   -502.25978632 </i>
    <i name="e_0_energy">   -502.25978691 </i>
   </energy>
  </scstep>
  <scstep>
   <time name="dav">    2.11    2.11</time>
   <time name="total">    3.77    3.77</time>
   <energy>
    <i name="e_fr_energy">   -502.26012114 </i>
    <i name="e_wo_entrp">   -502.26011990 </i>
    <i name="e_0_energy">   -502.26012052 </i>
   </energy>
  </scstep>
  <scstep>
   <time name="dav">    2.07    2.07</time>
   <time name="total">    3.71    3.71</time>
   <energy>
    <i name="e_fr_energy">   -502.26036337 </i>
    <i name="e_wo_entrp">   -502.26036209 </i>
    <i name="e_0_energy">   -502.26036273 </i>
   </energy>
  </scstep>
  <scstep>
   <time name="dav">    2.11    2.11</time>
   <time name="total">    3.77    3.77</time>
   <energy>
    <i name="e_fr_energy">   -502.26060036 </i>
    <i name="e_wo_entrp">   -502.26059902 </i>
    <i name="e_0_energy">   -502.26059969 </i>
   </energy>
  </scstep>
  <scstep>
   <time name="dav">    2.04    2.04</time>
   <time name="total">    3.69    3.70</time>
   <energy>
    <i name="e_fr_energy">   -502.26082208 </i>
    <i name="e_wo_entrp">   -502.26082068 </i>
    <i name="e_0_energy">   -502.26082138 </i>
   </energy>
  </scstep>
  <scstep>
   <time name="dav">    2.07    2.07</time>
   <time name="total">    3.74    3.74</time>
   <energy>
    <i name="e_fr_energy">   -502.26088924 </i>
    <i name="e_wo_entrp">   -502.26088779 </i>
    <i name="e_0_energy">   -502.26088852 </i>
   </energy>
  </scstep>
  <scstep>
   <time name="dav">    1.92    1.93</time>
   <time name="total">    3.58    3.58</time>
   <energy>
    <i name="e_fr_energy">   -502.26087063 </i>
    <i name="e_wo_entrp">   -502.26086914 </i>
    <i name="e_0_energy">   -502.26086988 </i>
   </energy>
  </scstep>
  <scstep>
   <time name="dav">    2.06    2.07</time>
   <time name="total">    3.75    3.75</time>
   <energy>
    <i name="e_fr_energy">   -502.26082613 </i>
    <i name="e_wo_entrp">   -502.26082459 </i>
    <i name="e_0_energy">   -502.26082536 </i>
   </energy>
  </scstep>
  <scstep>
   <time name="dav">    1.93    1.93</time>
   <time name="total">    3.57    3.58</time>
   <energy>
    <i name="e_fr_energy">   -502.26084232 </i>
    <i name="e_wo_entrp">   -502.26084077 </i>
    <i name="e_0_energy">   -502.26084154 </i>
   </energy>
  </scstep>
  <scstep>
   <time name="dav">    1.68    1.68</time>
   <time name="total">    3.33    3.33</time>
   <energy>
    <i name="e_fr_energy">   -502.26083973 </i>
    <i name="e_wo_entrp">   -502.26083817 </i>
    <i name="e_0_energy">   -502.26083895 </i>
   </energy>
  </scstep>
  <scstep>
   <time name="dav">    1.58    1.58</time>
   <time name="total">    3.24    3.24</time>
   <energy>
    <i name="e_fr_energy">   -502.26086691 </i>
    <i name="e_wo_entrp">   -502.26086534 </i>
    <i name="e_0_energy">   -502.26086613 </i>
   </energy>
  </scstep>
  <scstep>
   <time name="dav">    1.62    1.62</time>
   <time name="total">    3.28    3.28</time>
   <energy>
    <i name="e_fr_energy">   -502.26091249 </i>
    <i name="e_wo_entrp">   -502.26091092 </i>
    <i name="e_0_energy">   -502.26091171 </i>
   </energy>
  </scstep>
  <scstep>
   <time name="dav">    1.44    1.44</time>
   <time name="total">    3.10    3.10</time>
   <energy>
    <i name="e_fr_energy">   -502.26094103 </i>
    <i name="e_wo_entrp">   -502.26093946 </i>
    <i name="e_0_energy">   -502.26094025 </i>
   </energy>
  </scstep>
  <scstep>
   <time name="dav">    1.51    1.51</time>
   <time name="total">    3.18    3.18</time>
   <energy>
    <i name="e_fr_energy">   -502.26096285 </i>
    <i name="e_wo_entrp">   -502.26096128 </i>
    <i name="e_0_energy">   -502.26096207 </i>
   </energy>
  </scstep>
  <scstep>
   <time name="dav">    1.35    1.35</time>
   <time name="total">    2.99    2.99</time>
   <energy>
    <i name="e_fr_energy">   -502.26097827 </i>
    <i name="e_wo_entrp">   -502.26097670 </i>
    <i name="e_0_energy">   -502.26097749 </i>
   </energy>
  </scstep>
  <scstep>
   <time name="dav">    1.27    1.27</time>
   <time name="total">    2.93    2.93</time>
   <energy>
    <i name="e_fr_energy">   -502.26098339 </i>
    <i name="e_wo_entrp">   -502.26098182 </i>
    <i name="e_0_energy">   -502.26098260 </i>
   </energy>
  </scstep>
  <scstep>
   <time name="dav">    1.31    1.31</time>
   <time name="total">    2.95    2.95</time>
   <energy>
    <i name="e_fr_energy">   -502.26099224 </i>
    <i name="e_wo_entrp">   -502.26099066 </i>
    <i name="e_0_energy">   -502.26099145 </i>
   </energy>
  </scstep>
  <scstep>
   <time name="dav">    1.31    1.31</time>
   <time name="total">    2.96    2.96</time>
   <energy>
    <i name="e_fr_energy">   -502.26100082 </i>
    <i name="e_wo_entrp">   -502.26099925 </i>
    <i name="e_0_energy">   -502.26100004 </i>
   </energy>
  </scstep>
  <scstep>
   <time name="dav">    1.31    1.31</time>
   <time name="total">    2.98    2.98</time>
   <energy>
    <i name="e_fr_energy">   -502.26100440 </i>
    <i name="e_wo_entrp">   -502.26100283 </i>
    <i name="e_0_energy">   -502.26100361 </i>
   </energy>
  </scstep>
  <scstep>
   <time name="dav">    1.24    1.24</time>
   <time name="total">    2.89    2.89</time>
   <energy>
    <i name="e_fr_energy">   -502.26100553 </i>
    <i name="e_wo_entrp">   -502.26100396 </i>
    <i name="e_0_energy">   -502.26100475 </i>
   </energy>
  </scstep>
  <scstep>
   <time name="dav">    1.24    1.24</time>
   <time name="total">    2.29    2.29</time>
   <energy>
    <i name="alphaZ">   1011.17032867 </i>
    <i name="ewald"> 121427.75142095 </i>
    <i name="hartreedc">-160615.79638126 </i>
    <i name="XCdc">   1512.47989083 </i>
    <i name="pawpsdc">  40837.20812647 </i>
    <i name="pawaedc"> -40364.78174605 </i>
    <i name="eentropy">     -0.00000158 </i>
    <i name="bandstr">  -6616.22437148 </i>
    <i name="atom">  42305.93172720 </i>
    <i name="e_fr_energy">   -502.26100625 </i>
    <i name="e_wo_entrp">   -502.26100467 </i>
    <i name="e_0_energy">   -502.26100546 </i>
   </energy>
  </scstep>
  <structure>
   <crystal>
    <varray name="basis" >
     <v>      11.59819984       0.00000000       0.00000000 </v>
     <v>      -5.79909992      10.04433570       0.00000000 </v>
     <v>       0.00000000       0.00000000      21.04820061 </v>
    </varray>
    <i name="volume">   2452.03565684 </i>
    <varray name="rec_basis" >
     <v>       0.08622028       0.04977930       0.00000000 </v>
     <v>       0.00000000       0.09955860       0.00000000 </v>
     <v>       0.00000000       0.00000000       0.04751000 </v>
    </varray>
   </crystal>
   <varray name="positions" >
    <v>       0.00206045       0.00169821       0.46004893 </v>
    <v>       0.22216525       0.11097460       0.30796750 </v>
    <v>       0.33059467       0.00005836       0.46061031 </v>
    <v>       0.55561023       0.11170195       0.30948620 </v>
    <v>       0.67624734       0.00996636       0.45786644 </v>
    <v>       0.88937624       0.11159854       0.30877559 </v>
    <v>       0.99832445       0.33334678       0.46023350 </v>
    <v>       0.22160291       0.44346120       0.30866440 </v>
    <v>       0.32846058       0.32578002       0.45793836 </v>
    <v>       0.55563089       0.44452975       0.30718330 </v>
    <v>       0.66764633       0.33206028       0.45947237 </v>
    <v>       0.88858421       0.44444466       0.30937646 </v>
    <v>       0.00230368       0.66654105       0.45968704 </v>
    <v>       0.22156727       0.77821687       0.30863511 </v>
    <v>       0.32260707       0.65917633       0.45742985 </v>
    <v>       0.55606383       0.77785765       0.30571744 </v>
    <v>       0.67357017       0.66706153       0.45676074 </v>
    <v>       0.88906326       0.77755814       0.30885284 </v>
    <v>       0.00062641       0.00047776       0.57334139 </v>
    <v>       0.11121783       0.22226212       0.27184897 </v>
    <v>       0.22030543       0.11052299       0.42044135 </v>
    <v>       0.10690242       0.21973775       0.49582633 </v>
    <v>       0.00025111       0.00013916       0.34755088 </v>
    <v>       0.33167288       0.00081858       0.57538039 </v>
    <v>       0.44318249       0.22036101       0.27202734 </v>
    <v>       0.55636738       0.10995297       0.42086975 </v>
    <v>       0.43794494       0.21066606       0.49524165 </v>
    <v>       0.33246799       0.00004455       0.34810573 </v>
    <v>       0.65223904       0.98900712       0.57220667 </v>
    <v>       0.77763618       0.22171167       0.27217416 </v>
    <v>       0.88926862       0.11186179       0.41975275 </v>
    <v>       0.78091806       0.22394228       0.49512563 </v>
    <v>       0.66820855       0.00180170       0.34793541 </v>
    <v>       0.99950911       0.33279344       0.57360159 </v>
    <v>       0.11212626       0.55621969       0.27220486 </v>
    <v>       0.22274936       0.44419562       0.42065317 </v>
    <v>       0.10916462       0.55417875       0.49603835 </v>
    <v>       0.00054897       0.33339892       0.34763342 </v>
    <v>       0.33743933       0.34889014       0.57213299 </v>
    <v>       0.44331378       0.55644118       0.27179277 </v>
    <v>       0.55405749       0.44700983       0.41086885 </v>
    <v>       0.43559238       0.54480457       0.50003253 </v>
    <v>       0.32863144       0.33019259       0.34770191 </v>
    <v>       0.66738101       0.33401103       0.57422144 </v>
    <v>       0.77923714       0.55675183       0.27217025 </v>
    <v>       0.88855548       0.44420235       0.42001019 </v>
    <v>       0.79279250       0.56408273       0.49526464 </v>
    <v>       0.66760544       0.33157664       0.34757519 </v>
    <v>       0.00008254       0.66689552       0.57344639 </v>
    <v>       0.11147540       0.88895575       0.27189206 </v>
    <v>       0.22312883       0.77858059       0.42095200 </v>
    <v>       0.11103014       0.88918894       0.49839529 </v>
    <v>       0.00092835       0.66744207       0.34752576 </v>
    <v>       0.34879488       0.68549323       0.57132134 </v>
    <v>       0.44408034       0.88834195       0.27194759 </v>
    <v>       0.55221213       0.77924531       0.41410845 </v>
    <v>       0.44400050       0.89203129       0.50266117 </v>
    <v>       0.33079572       0.66540951       0.34826545 </v>
    <v>       0.64507036       0.65429746       0.57312780 </v>
    <v>       0.77756009       0.88894907       0.27164716 </v>
    <v>       0.88949261       0.77802257       0.42019863 </v>
    <v>       0.79051767       0.89738715       0.49336057 </v>
    <v>       0.66979192       0.67086609       0.34772582 </v>
    <v>       0.41518533       0.91078468       0.63345977 </v>
    <v>       0.54855697       0.76241896       0.64402362 </v>
    <v>       0.57532384       0.76747058       0.52084431 </v>
    <v>       0.42708400       0.58213387       0.63323037 </v>
    <v>       0.55638152       0.44231174       0.65363499 </v>
    <v>       0.57066319       0.42349466       0.53010779 </v>
    <v>       0.48672065       0.84379836       0.58731028 </v>
    <v>       0.50018058       0.49593151       0.59478647 </v>
   </varray>
  </structure>
  <varray name="forces" >
   <v>      -0.01545263      -0.05224930      -0.10783435 </v>
   <v>      -0.14171963      -0.13121331       0.05083173 </v>
   <v>      -0.08825609      -0.09399276       0.14861770 </v>
   <v>       0.06944920      -0.05522243      -0.00320301 </v>
   <v>       0.22909462      -0.35708486       0.04025666 </v>
   <v>       0.07019467       0.05183689       0.03081711 </v>
   <v>       0.05578820      -0.08845075      -0.12723981 </v>
   <v>      -0.21080020      -0.06662342       0.02896089 </v>
   <v>       0.00959390       0.36011925       0.26038321 </v>
   <v>       0.03601294      -0.06766106      -0.15940093 </v>
   <v>       0.21566275       0.02334034      -0.11528529 </v>
   <v>       0.17127308      -0.03590985       0.03551653 </v>
   <v>       0.02278707       0.11222285      -0.07616529 </v>
   <v>      -0.02145350      -0.03833029      -0.03531558 </v>
   <v>       0.59828841      -0.16564324      -0.21605372 </v>
   <v>      -0.06976297       0.14512330       0.24986606 </v>
   <v>      -0.37151924       0.05468921       0.02462667 </v>
   <v>       0.11169085       0.20821938       0.06230641 </v>
   <v>       0.00621394       0.00604380       0.05191459 </v>
   <v>      -0.02819980      -0.00539494      -0.20390343 </v>
   <v>       0.14294191      -0.06420717      -0.03787364 </v>
   <v>       0.07007217       0.11354171      -0.02903728 </v>
   <v>       0.00261179      -0.00976802      -0.25779864 </v>
   <v>      -0.23163034       0.07687261       0.07894940 </v>
   <v>       0.02003193       0.11170171      -0.11313445 </v>
   <v>      -0.00769362      -0.08229379       0.03608946 </v>
   <v>       0.03961912       0.11602290      -0.19318025 </v>
   <v>       0.03655516      -0.00318280      -0.01529310 </v>
   <v>      -0.61425141      -0.37323721       0.29587739 </v>
   <v>      -0.01423925       0.02166649      -0.12295542 </v>
   <v>      -0.02828812       0.12992584      -0.19170042 </v>
   <v>      -0.07010112       0.01194925      -0.18419783 </v>
   <v>      -0.02362108       0.03392740      -0.27615175 </v>
   <v>       0.02318946      -0.04525140       0.05857159 </v>
   <v>      -0.03295630      -0.00147016      -0.11832895 </v>
   <v>       0.02264271       0.02519952      -0.05022161 </v>
   <v>       0.19226426       0.06075462      -0.07366580 </v>
   <v>      -0.00419890       0.05155944      -0.18017636 </v>
   <v>       0.55935115       0.51065561       0.73312798 </v>
   <v>       0.11084708      -0.00723454      -0.12201603 </v>
   <v>       0.16281470      -0.03055971       0.78308935 </v>
   <v>       0.28760100       0.04022504      -0.14923588 </v>
   <v>       0.03393364       0.01155483      -0.28290068 </v>
   <v>       0.02035831       0.03784072      -0.02098633 </v>
   <v>      -0.09052358      -0.08052615      -0.09524837 </v>
   <v>      -0.07998913      -0.03603580      -0.12103392 </v>
   <v>      -0.33814132      -0.16505366      -0.05211998 </v>
   <v>      -0.07859613      -0.00224577      -0.12495883 </v>
   <v>      -0.03192992       0.04172957       0.02416932 </v>
   <v>       0.03286301      -0.00532138      -0.15450952 </v>
   <v>       0.21789041       0.08125870       0.09738070 </v>
   <v>       0.12494990      -0.02872814       0.00619652 </v>
   <v>       0.06056122       0.00162099      -0.14599812 </v>
   <v>      -1.12009512      -1.25724274      -0.36371664 </v>
   <v>       0.03686408      -0.00869403      -0.09634218 </v>
   <v>      -0.09717223      -0.04060011       0.57685195 </v>
   <v>      -0.12312358       0.08542820       0.05351430 </v>
   <v>      -0.07959196      -0.04353956      -0.17005875 </v>
   <v>       0.58239325      -0.05137187       0.35603936 </v>
   <v>      -0.07545828      -0.00954072      -0.20154009 </v>
   <v>       0.05808877      -0.08304071      -0.15515474 </v>
   <v>      -0.08349913      -0.11922515      -0.13342042 </v>
   <v>      -0.01799426      -0.02214097      -0.33130995 </v>
   <v>      -1.94632165       1.13419011       1.37150398 </v>
   <v>      -0.79996308       0.31265932       0.18192227 </v>
   <v>      -0.10169756       0.13279868      -0.11533626 </v>
   <v>       0.25161393      -0.09567830       0.59787989 </v>
   <v>       1.90557298      -1.12810076       3.15936587 </v>
   <v>      -0.27265942      -0.05450609       0.75148767 </v>
   <v>       3.60416571       0.60805963      -0.81055547 </v>
   <v>      -2.88494677       0.29383502      -3.61155549 </v>
  </varray>
  <varray name="stress" >
   <v>      -7.71291061      -1.55717795      -1.59563005 </v>
   <v>      -1.55717823      -6.99427392       0.36664296 </v>
   <v>      -1.59530416       0.36671763      11.12449712 </v>
  </varray>
  <energy>
   <i name="e_fr_energy">   -502.26100625 </i>
   <i name="e_wo_entrp">   -502.26100467 </i>
   <i name="e_0_energy">   -502.26100546 </i>
  </energy>
  <time name="totalsc">  240.13  247.54</time>
 </calculation>
 <calculation>
  <scstep>
   <time name="dav">    1.56    1.56</time>
   <time name="total">    3.22    3.22</time>
   <energy>
    <i name="alphaZ">   1011.17032867 </i>
    <i name="ewald"> 121757.55770468 </i>
    <i name="hartreedc">-160945.28746708 </i>
    <i name="XCdc">   1512.63331844 </i>
    <i name="pawpsdc">  40837.20868292 </i>
    <i name="pawaedc"> -40364.78230239 </i>
    <i name="eentropy">     -0.00000096 </i>
    <i name="bandstr">  -6616.76741707 </i>
    <i name="atom">  42305.93172720 </i>
    <i name="e_fr_energy">   -502.33542559 </i>
    <i name="e_wo_entrp">   -502.33542464 </i>
    <i name="e_0_energy">   -502.33542511 </i>
   </energy>
  </scstep>
  <scstep>
   <time name="dav">    2.08    2.08</time>
   <time name="total">    3.73    3.73</time>
   <energy>
    <i name="e_fr_energy">   -502.51679843 </i>
    <i name="e_wo_entrp">   -502.51679474 </i>
    <i name="e_0_energy">   -502.51679659 </i>
   </energy>
  </scstep>
  <scstep>
   <time name="dav">    2.61    2.62</time>
   <time name="total">    4.27    4.28</time>
   <energy>
    <i name="e_fr_energy">   -502.47836107 </i>
    <i name="e_wo_entrp">   -502.47836006 </i>
    <i name="e_0_energy">   -502.47836057 </i>
   </energy>
  </scstep>
  <scstep>
   <time name="dav">    2.26    2.26</time>
   <time name="total">    3.91    3.91</time>
   <energy>
    <i name="e_fr_energy">   -502.46034553 </i>
    <i name="e_wo_entrp">   -502.46034491 </i>
    <i name="e_0_energy">   -502.46034522 </i>
   </energy>
  </scstep>
  <scstep>
   <time name="dav">    2.29    2.29</time>
   <time name="total">    3.94    3.94</time>
   <energy>
    <i name="e_fr_energy">   -502.45303181 </i>
    <i name="e_wo_entrp">   -502.45303042 </i>
    <i name="e_0_energy">   -502.45303111 </i>
   </energy>
  </scstep>
  <scstep>
   <time name="dav">    2.53    2.53</time>
   <time name="total">    4.18    4.19</time>
   <energy>
    <i name="e_fr_energy">   -502.44570883 </i>
    <i name="e_wo_entrp">   -502.44570807 </i>
    <i name="e_0_energy">   -502.44570845 </i>
   </energy>
  </scstep>
  <scstep>
   <time name="dav">    2.19    2.19</time>
   <time name="total">    3.83    3.83</time>
   <energy>
    <i name="e_fr_energy">   -502.44611122 </i>
    <i name="e_wo_entrp">   -502.44611053 </i>
    <i name="e_0_energy">   -502.44611088 </i>
   </energy>
  </scstep>
  <scstep>
   <time name="dav">    2.34    2.34</time>
   <time name="total">    4.00    4.00</time>
   <energy>
    <i name="e_fr_energy">   -502.44664104 </i>
    <i name="e_wo_entrp">   -502.44664031 </i>
    <i name="e_0_energy">   -502.44664068 </i>
   </energy>
  </scstep>
  <scstep>
   <time name="dav">    2.11    2.11</time>
   <time name="total">    3.75    3.75</time>
   <energy>
    <i name="e_fr_energy">   -502.44721484 </i>
    <i name="e_wo_entrp">   -502.44721418 </i>
    <i name="e_0_energy">   -502.44721451 </i>
   </energy>
  </scstep>
  <scstep>
   <time name="dav">    2.30    2.30</time>
   <time name="total">    3.94    4.29</time>
   <energy>
    <i name="e_fr_energy">   -502.44763208 </i>
    <i name="e_wo_entrp">   -502.44763138 </i>
    <i name="e_0_energy">   -502.44763173 </i>
   </energy>
  </scstep>
  <scstep>
