 running  192 mpi-ranks, on    1 nodes
 distrk:  each k-point on  192 cores,    1 groups
 distr:  one band on    4 cores,   48 groups
 vasp.6.4.3 19Mar24 (build Mar 01 2025 18:03:59) gamma-only                     
  
 POSCAR found type information on POSCAR CeO Ir
 POSCAR found :  3 types and      71 ions
 Reading from existing POTCAR
 scaLAPACK will be used
 -----------------------------------------------------------------------------
|                                                                             |
|           W    W    AA    RRRRR   N    N  II  N    N   GGGG   !!!           |
|           W    W   A  A   R    R  NN   N  II  NN   N  G    G  !!!           |
|           W    W  A    A  R    R  N N  N  II  N N  N  G       !!!           |
|           W WW W  AAAAAA  RRRRR   N  N N  II  N  N N  G  GGG   !            |
|           WW  WW  A    A  R   R   N   NN  II  N   NN  G    G                |
|           W    W  A    A  R    R  N    N  II  N    N   GGGG   !!!           |
|                                                                             |
|     For optimal performance we recommend to set                             |
|       NCORE = 2 up to number-of-cores-per-socket                            |
|     NCORE specifies how many cores store one orbital (NPAR=cpu/NCORE).      |
|     This setting can greatly improve the performance of VASP for DFT.       |
|     The default, NCORE=1 might be grossly inefficient on modern             |
|     multi-core architectures or massively parallel machines. Do your        |
|     own testing! More info at https://www.vasp.at/wiki/index.php/NCORE      |
|     Unfortunately you need to use the default for GW and RPA                |
|     calculations (for HF NCORE is supported but not extensively tested      |
|     yet).                                                                   |
|                                                                             |
 -----------------------------------------------------------------------------

 Reading from existing POTCAR
 -----------------------------------------------------------------------------
|                                                                             |
|               ----> ADVICE to this user running VASP <----                  |
|                                                                             |
|     You have a (more or less) 'large supercell' and for larger cells it     |
|     might be more efficient to use real-space projection operators.         |
|     Therefore, try LREAL= Auto in the INCAR file.                           |
|     Mind: For very accurate calculation, you might also keep the            |
|     reciprocal projection scheme (i.e. LREAL=.FALSE.).                      |
|                                                                             |
 -----------------------------------------------------------------------------

 LDA part: xc-table for (Slater+PW92), standard interpolation
 POSCAR, INCAR and KPOINTS ok, starting setup
 FFT: planning ... GRIDC
 FFT: planning ... GRID_SOFT
 FFT: planning ... GRID
 WAVECAR not read
 WARNING: random wavefunctions but no delay for mixing, default for NELMDL
 entering main loop
       N       E                     dE             d eps       ncg     rms          rms(c)
DAV:   1     0.956333302639E+04    0.95633E+04   -0.24456E+05  1536   0.152E+03
DAV:   2     0.260608498290E+04   -0.69572E+04   -0.60731E+04  1920   0.401E+02
DAV:   3    -0.276615374086E+03   -0.28827E+04   -0.27491E+04  2304   0.238E+02
DAV:   4    -0.631987607084E+03   -0.35537E+03   -0.35042E+03  2208   0.932E+01
DAV:   5    -0.648301042440E+03   -0.16313E+02   -0.16254E+02  2592   0.245E+01    0.138E+02
DAV:   6    -0.576560440151E+03    0.71741E+02   -0.28286E+03  2304   0.675E+01    0.209E+02
DAV:   7    -0.483599466261E+03    0.92961E+02   -0.89810E+02  2448   0.768E+01    0.884E+01
DAV:   8    -0.559416806049E+03   -0.75817E+02   -0.85400E+02  2688   0.526E+01    0.159E+02
DAV:   9    -0.508408357270E+03    0.51008E+02   -0.31407E+03  2544   0.139E+02    0.128E+02
DAV:  10    -0.506412392803E+03    0.19960E+01   -0.16709E+03  2448   0.115E+02    0.468E+01
DAV:  11    -0.509150695865E+03   -0.27383E+01   -0.29523E+02  2544   0.344E+01    0.522E+01
DAV:  12    -0.493997559281E+03    0.15153E+02   -0.16363E+02  2208   0.120E+01    0.409E+01
DAV:  13    -0.484853597939E+03    0.91440E+01   -0.30498E+01  2400   0.886E+00    0.368E+01
DAV:  14    -0.481728848199E+03    0.31247E+01   -0.35712E+01  2256   0.694E+00    0.335E+01
DAV:  15    -0.480713453576E+03    0.10154E+01   -0.56318E+01  2304   0.681E+00    0.261E+01
DAV:  16    -0.481068896534E+03   -0.35544E+00   -0.11153E+01  2688   0.506E+00    0.232E+01
DAV:  17    -0.481699084666E+03   -0.63019E+00   -0.78944E+00  2688   0.371E+00    0.190E+01
DAV:  18    -0.483345759113E+03   -0.16467E+01   -0.28932E+00  2496   0.228E+00    0.156E+01
DAV:  19    -0.485082497163E+03   -0.17367E+01   -0.37572E+00  2544   0.228E+00    0.157E+01
DAV:  20    -0.486557733688E+03   -0.14752E+01   -0.20414E+00  2352   0.197E+00    0.130E+01
DAV:  21    -0.488426379758E+03   -0.18686E+01   -0.22727E+00  2400   0.226E+00    0.101E+01
DAV:  22    -0.490291771394E+03   -0.18654E+01   -0.20826E+00  2496   0.241E+00    0.680E+00
DAV:  23    -0.491369690843E+03   -0.10779E+01   -0.88912E-01  2496   0.146E+00    0.502E+00
DAV:  24    -0.493065286371E+03   -0.16956E+01   -0.12031E+00  2496   0.194E+00    0.414E+00
DAV:  25    -0.494042780228E+03   -0.97749E+00   -0.72668E-01  2544   0.178E+00    0.307E+00
DAV:  26    -0.495159866352E+03   -0.11171E+01   -0.68879E-01  2640   0.167E+00    0.309E+00
DAV:  27    -0.495898337156E+03   -0.73847E+00   -0.45903E-01  2448   0.922E-01    0.237E+00
DAV:  28    -0.496516063820E+03   -0.61773E+00   -0.29288E-01  2352   0.711E-01    0.185E+00
DAV:  29    -0.496873288773E+03   -0.35722E+00   -0.17138E-01  2544   0.670E-01    0.189E+00
DAV:  30    -0.497231404828E+03   -0.35812E+00   -0.13202E-01  2352   0.475E-01    0.146E+00
DAV:  31    -0.497483327649E+03   -0.25192E+00   -0.96239E-02  2304   0.459E-01    0.138E+00
DAV:  32    -0.497627230373E+03   -0.14390E+00   -0.36392E-02  2352   0.293E-01    0.950E-01
DAV:  33    -0.497699720104E+03   -0.72490E-01   -0.11225E-02  2544   0.176E-01    0.872E-01
DAV:  34    -0.497748904209E+03   -0.49184E-01   -0.41043E-03  2496   0.109E-01    0.762E-01
DAV:  35    -0.497823493463E+03   -0.74589E-01   -0.77628E-03  2400   0.125E-01    0.613E-01
DAV:  36    -0.497926866760E+03   -0.10337E+00   -0.10679E-02  2352   0.201E-01    0.424E-01
DAV:  37    -0.497992573373E+03   -0.65707E-01   -0.54034E-03  2544   0.124E-01    0.335E-01
DAV:  38    -0.498016117612E+03   -0.23544E-01   -0.20112E-03  2400   0.110E-01    0.303E-01
DAV:  39    -0.498025881519E+03   -0.97639E-02   -0.90381E-04  2496   0.542E-02    0.254E-01
DAV:  40    -0.498039890214E+03   -0.14009E-01   -0.18575E-03  2352   0.860E-02    0.218E-01
DAV:  41    -0.498043692597E+03   -0.38024E-02   -0.73991E-04  2400   0.505E-02    0.136E-01
DAV:  42    -0.498045119303E+03   -0.14267E-02   -0.25979E-04  2400   0.302E-02    0.131E-01
DAV:  43    -0.498045589296E+03   -0.46999E-03   -0.77142E-05  2592   0.210E-02    0.972E-02
DAV:  44    -0.498046360318E+03   -0.77102E-03   -0.91173E-05  2352   0.143E-02    0.751E-02
DAV:  45    -0.498046965266E+03   -0.60495E-03   -0.76576E-05  2448   0.142E-02    0.472E-02
DAV:  46    -0.498047691330E+03   -0.72606E-03   -0.59728E-05  2592   0.115E-02    0.317E-02
DAV:  47    -0.498047909013E+03   -0.21768E-03   -0.13659E-05  2352   0.577E-03    0.246E-02
DAV:  48    -0.498048193471E+03   -0.28446E-03   -0.17575E-05  2400   0.729E-03    0.195E-02
DAV:  49    -0.498048462687E+03   -0.26922E-03   -0.13469E-05  2208   0.491E-03    0.121E-02
DAV:  50    -0.498048621901E+03   -0.15921E-03   -0.72686E-06  1776   0.325E-03    0.834E-03
DAV:  51    -0.498048592992E+03    0.28909E-04   -0.43073E-06  2256   0.518E-03    0.639E-03
DAV:  52    -0.498048682749E+03   -0.89757E-04   -0.21403E-06  1824   0.223E-03    0.501E-03
DAV:  53    -0.498048765959E+03   -0.83210E-04   -0.27182E-06  1488   0.200E-03    0.318E-03
DAV:  54    -0.498048805935E+03   -0.39976E-04   -0.11371E-06  1344   0.140E-03    0.276E-03
DAV:  55    -0.498048816469E+03   -0.10534E-04   -0.25524E-07  1056   0.104E-03    0.269E-03
DAV:  56    -0.498048827633E+03   -0.11164E-04   -0.35677E-07  1104   0.916E-04    0.159E-03
DAV:  57    -0.498048842980E+03   -0.15347E-04   -0.64895E-07  1344   0.889E-04    0.142E-03
DAV:  58    -0.498048851862E+03   -0.88822E-05   -0.24673E-07  1104   0.702E-04    0.126E-03
DAV:  59    -0.498048860058E+03   -0.81961E-05   -0.41250E-07  1248   0.720E-04    0.998E-04
DAV:  60    -0.498048864922E+03   -0.48640E-05   -0.21980E-07  1104   0.659E-04    0.779E-04
DAV:  61    -0.498048866610E+03   -0.16874E-05   -0.82506E-08  1056   0.548E-04    0.584E-04
DAV:  62    -0.498048868373E+03   -0.17635E-05   -0.98594E-08  1056   0.448E-04    0.559E-04
DAV:  63    -0.498048869581E+03   -0.12072E-05   -0.65691E-08   912   0.441E-04    0.491E-04
DAV:  64    -0.498048870227E+03   -0.64602E-06   -0.46904E-08   912   0.359E-04
   1 F= -.49804887E+03 E0= -.49804870E+03  d E =-.498049E+03  mag=    12.0000
 curvature:   0.00 expect dE= 0.000E+00 dE for cont linesearch  0.000E+00
 trial: gam= 0.00000 g(F)=  0.907E+01 g(S)=  0.000E+00 ort = 0.000E+00 (trialstep = 0.100E+01)
 search vector abs. value=  0.907E+01
 bond charge predicted
       N       E                     dE             d eps       ncg     rms          rms(c)
DAV:   1    -0.490455313422E+03    0.75936E+01   -0.20626E+03  1632   0.682E+01    0.314E+01
DAV:   2    -0.499195677068E+03   -0.87404E+01   -0.12160E+02  2304   0.218E+01    0.454E+01
DAV:   3    -0.498126912999E+03    0.10688E+01   -0.10667E+01  2448   0.599E+00    0.322E+01
DAV:   4    -0.497828620417E+03    0.29829E+00   -0.68271E+00  2496   0.443E+00    0.210E+01
DAV:   5    -0.500111688759E+03   -0.22831E+01   -0.49142E+01  2400   0.719E+00    0.195E+01
DAV:   6    -0.497932772399E+03    0.21789E+01   -0.85916E+00  2688   0.456E+00    0.941E+00
DAV:   7    -0.497712296793E+03    0.22048E+00   -0.49603E+00  2208   0.358E+00    0.749E+00
DAV:   8    -0.497591440436E+03    0.12086E+00   -0.20842E+00  2448   0.201E+00    0.492E+00
DAV:   9    -0.497569083673E+03    0.22357E-01   -0.47325E-01  2592   0.924E-01    0.362E+00
DAV:  10    -0.497571805852E+03   -0.27222E-02   -0.13105E-01  2256   0.573E-01    0.296E+00
DAV:  11    -0.497574989105E+03   -0.31833E-02   -0.11358E-01  2304   0.451E-01    0.191E+00
DAV:  12    -0.497578344699E+03   -0.33556E-02   -0.38220E-02  2496   0.309E-01    0.159E+00
DAV:  13    -0.497582789620E+03   -0.44449E-02   -0.28189E-02  2448   0.229E-01    0.134E+00
DAV:  14    -0.497583449919E+03   -0.66030E-03   -0.13365E-02  2304   0.162E-01    0.110E+00
DAV:  15    -0.497586346532E+03   -0.28966E-02   -0.21637E-02  2304   0.183E-01    0.854E-01
DAV:  16    -0.497588932736E+03   -0.25862E-02   -0.13024E-02  2304   0.138E-01    0.585E-01
DAV:  17    -0.497591049789E+03   -0.21171E-02   -0.52805E-03  2256   0.939E-02    0.402E-01
DAV:  18    -0.497593117483E+03   -0.20677E-02   -0.37563E-03  2448   0.829E-02    0.246E-01
DAV:  19    -0.497594885776E+03   -0.17683E-02   -0.20937E-03  2256   0.621E-02    0.103E-01
DAV:  20    -0.497596123194E+03   -0.12374E-02   -0.50645E-04  2304   0.334E-02    0.581E-02
DAV:  21    -0.497596640171E+03   -0.51698E-03   -0.90444E-05  2448   0.163E-02    0.422E-02
DAV:  22    -0.497597269466E+03   -0.62929E-03   -0.65187E-05  2256   0.119E-02    0.317E-02
DAV:  23    -0.497597966017E+03   -0.69655E-03   -0.45311E-05  2208   0.984E-03    0.201E-02
DAV:  24    -0.497598300676E+03   -0.33466E-03   -0.19219E-05  2208   0.693E-03    0.125E-02
DAV:  25    -0.497598559808E+03   -0.25913E-03   -0.10297E-05  2208   0.455E-03    0.881E-03
DAV:  26    -0.497598712453E+03   -0.15265E-03   -0.33129E-06  1824   0.272E-03    0.756E-03
DAV:  27    -0.497598915609E+03   -0.20316E-03   -0.46331E-06  1920   0.278E-03    0.535E-03
DAV:  28    -0.497599153929E+03   -0.23832E-03   -0.67243E-06  1824   0.289E-03    0.391E-03
DAV:  29    -0.497599292772E+03   -0.13884E-03   -0.39219E-06  1728   0.218E-03    0.353E-03
DAV:  30    -0.497599342309E+03   -0.49537E-04   -0.84744E-07  1392   0.131E-03    0.302E-03
DAV:  31    -0.497599386989E+03   -0.44680E-04   -0.76985E-07  1488   0.111E-03    0.233E-03
DAV:  32    -0.497599440198E+03   -0.53210E-04   -0.13537E-06  1488   0.120E-03    0.186E-03
DAV:  33    -0.497599470203E+03   -0.30005E-04   -0.10746E-06  1488   0.116E-03    0.118E-03
DAV:  34    -0.497599483912E+03   -0.13708E-04   -0.57714E-07  1296   0.903E-04    0.868E-04
DAV:  35    -0.497599487564E+03   -0.36525E-05   -0.14113E-07  1152   0.728E-04    0.720E-04
DAV:  36    -0.497599488935E+03   -0.13706E-05   -0.69850E-08  1104   0.555E-04    0.582E-04
DAV:  37    -0.497599490114E+03   -0.11798E-05   -0.48852E-08  1056   0.502E-04    0.553E-04
DAV:  38    -0.497599491377E+03   -0.12630E-05   -0.39304E-08  1056   0.449E-04    0.488E-04
DAV:  39    -0.497599492401E+03   -0.10239E-05   -0.32374E-08  1056   0.413E-04    0.465E-04
DAV:  40    -0.497599492928E+03   -0.52629E-06   -0.23179E-08  1056   0.371E-04
   2 F= -.49759949E+03 E0= -.49759938E+03  d E =0.449377E+00  mag=    12.0000
 trial-energy change:    0.449377  1 .order    2.901113   -9.074337   14.876563
 step:   0.5318(harm=  0.3789)  dis= 0.19288  next Energy=  -500.830469 (dE=-0.278E+01)
 bond charge predicted
       N       E                     dE             d eps       ncg     rms          rms(c)
DAV:   1    -0.499482273142E+03   -0.18828E+01   -0.45195E+02  1584   0.299E+01    0.283E+01
DAV:   2    -0.501205405350E+03   -0.17231E+01   -0.22158E+01  2256   0.867E+00    0.254E+01
DAV:   3    -0.502219649559E+03   -0.10142E+01   -0.31943E+01  2688   0.653E+00    0.187E+01
DAV:   4    -0.500750817533E+03    0.14688E+01   -0.10158E+01  2304   0.444E+00    0.785E+00
DAV:   5    -0.500702193864E+03    0.48624E-01   -0.53509E+00  2400   0.402E+00    0.825E+00
DAV:   6    -0.500567054228E+03    0.13514E+00   -0.72697E+00  2544   0.227E+00    0.426E+00
DAV:   7    -0.500504430990E+03    0.62623E-01   -0.62894E-01  2544   0.132E+00    0.258E+00
DAV:   8    -0.500505260516E+03   -0.82953E-03   -0.18909E-01  2352   0.683E-01    0.175E+00
DAV:   9    -0.500523188894E+03   -0.17928E-01   -0.17231E-01  2448   0.534E-01    0.145E+00
DAV:  10    -0.500525131131E+03   -0.19422E-02   -0.11805E-01  2496   0.421E-01    0.986E-01
DAV:  11    -0.500525494877E+03   -0.36375E-03   -0.62368E-02  2592   0.328E-01    0.523E-01
DAV:  12    -0.500527057717E+03   -0.15628E-02   -0.16944E-02  2496   0.195E-01    0.247E-01
DAV:  13    -0.500528900183E+03   -0.18425E-02   -0.43429E-03  2496   0.971E-02    0.227E-01
DAV:  14    -0.500530328219E+03   -0.14280E-02   -0.20940E-03  2592   0.592E-02    0.176E-01
DAV:  15    -0.500532147020E+03   -0.18188E-02   -0.16710E-03  2208   0.556E-02    0.142E-01
DAV:  16    -0.500533241812E+03   -0.10948E-02   -0.10971E-03  2256   0.450E-02    0.979E-02
DAV:  17    -0.500533817195E+03   -0.57538E-03   -0.67085E-04  2400   0.340E-02    0.816E-02
DAV:  18    -0.500534058310E+03   -0.24112E-03   -0.32758E-04  2304   0.241E-02    0.582E-02
DAV:  19    -0.500534341981E+03   -0.28367E-03   -0.23256E-04  2304   0.186E-02    0.391E-02
DAV:  20    -0.500534563078E+03   -0.22110E-03   -0.10858E-04  2256   0.129E-02    0.305E-02
DAV:  21    -0.500534804061E+03   -0.24098E-03   -0.11184E-04  2160   0.110E-02    0.274E-02
DAV:  22    -0.500534999238E+03   -0.19518E-03   -0.86062E-05  2208   0.950E-03    0.243E-02
DAV:  23    -0.500535291438E+03   -0.29220E-03   -0.17250E-04  2208   0.113E-02    0.247E-02
DAV:  24    -0.500535483395E+03   -0.19196E-03   -0.10333E-04  2160   0.942E-03    0.225E-02
DAV:  25    -0.500535581493E+03   -0.98098E-04   -0.41965E-05  2352   0.615E-03    0.209E-02
DAV:  26    -0.500535674067E+03   -0.92573E-04   -0.83999E-05  2112   0.771E-03    0.175E-02
DAV:  27    -0.500535688534E+03   -0.14468E-04   -0.21537E-04  2208   0.123E-02    0.121E-02
DAV:  28    -0.500535628723E+03    0.59811E-04   -0.10067E-04  2160   0.912E-03    0.863E-03
DAV:  29    -0.500535587322E+03    0.41401E-04   -0.35917E-05  2160   0.543E-03    0.674E-03
DAV:  30    -0.500535584461E+03    0.28611E-05   -0.84406E-06  1728   0.300E-03    0.523E-03
DAV:  31    -0.500535599411E+03   -0.14950E-04   -0.94638E-06  1728   0.285E-03    0.348E-03
DAV:  32    -0.500535629162E+03   -0.29751E-04   -0.81850E-06  1776   0.264E-03    0.228E-03
DAV:  33    -0.500535658615E+03   -0.29453E-04   -0.64252E-06  1536   0.229E-03    0.198E-03
DAV:  34    -0.500535678160E+03   -0.19545E-04   -0.28147E-06  1296   0.184E-03    0.162E-03
DAV:  35    -0.500535691340E+03   -0.13179E-04   -0.40720E-07  1104   0.136E-03    0.129E-03
DAV:  36    -0.500535705506E+03   -0.14166E-04   -0.46696E-07  1152   0.109E-03    0.106E-03
DAV:  37    -0.500535718423E+03   -0.12918E-04   -0.39348E-07  1152   0.110E-03    0.860E-04
DAV:  38    -0.500535727784E+03   -0.93608E-05   -0.24900E-07  1152   0.903E-04    0.712E-04
DAV:  39    -0.500535731281E+03   -0.34968E-05   -0.35196E-07  1104   0.885E-04    0.635E-04
DAV:  40    -0.500535732356E+03   -0.10753E-05   -0.30534E-07  1056   0.883E-04    0.592E-04
DAV:  41    -0.500535733500E+03   -0.11438E-05   -0.94858E-08  1056   0.693E-04    0.524E-04
DAV:  42    -0.500535734241E+03   -0.74138E-06   -0.82137E-08  1056   0.526E-04
   3 F= -.50053573E+03 E0= -.50053433E+03  d E =-.248686E+01  mag=    12.0000
 curvature:  -0.18 expect dE=-0.496E+00 dE for cont linesearch -0.429E-02
 trial: gam= 0.25560 g(F)=  0.279E+01 g(S)=  0.000E+00 ort = 0.468E+00 (trialstep = 0.906E+00)
 search vector abs. value=  0.362E+01
 bond charge predicted
       N       E                     dE             d eps       ncg     rms          rms(c)
DAV:   1    -0.499244943763E+03    0.12908E+01   -0.73839E+02  1536   0.425E+01    0.104E+01
DAV:   2    -0.501650488686E+03   -0.24055E+01   -0.27370E+01  2160   0.104E+01    0.120E+01
DAV:   3    -0.501447036856E+03    0.20345E+00   -0.35749E+00  2832   0.329E+00    0.753E+00
DAV:   4    -0.501513407247E+03   -0.66370E-01   -0.16383E+00  2736   0.191E+00    0.705E+00
DAV:   5    -0.501431646398E+03    0.81761E-01   -0.22137E+00  2688   0.190E+00    0.401E+00
DAV:   6    -0.501409897867E+03    0.21749E-01   -0.13555E+00  2352   0.159E+00    0.259E+00
DAV:   7    -0.501367652189E+03    0.42246E-01   -0.31545E-01  2544   0.855E-01    0.925E-01
DAV:   8    -0.501367662310E+03   -0.10121E-04   -0.51686E-02  2448   0.377E-01    0.712E-01
DAV:   9    -0.501366195596E+03    0.14667E-02   -0.15502E-02  2448   0.220E-01    0.388E-01
DAV:  10    -0.501365963877E+03    0.23172E-03   -0.85714E-03  2544   0.168E-01    0.272E-01
DAV:  11    -0.501366222608E+03   -0.25873E-03   -0.32649E-03  2592   0.100E-01    0.153E-01
DAV:  12    -0.501366618133E+03   -0.39553E-03   -0.12167E-03  2592   0.579E-02    0.119E-01
DAV:  13    -0.501366898319E+03   -0.28019E-03   -0.37189E-04  2448   0.327E-02    0.724E-02
DAV:  14    -0.501367275323E+03   -0.37700E-03   -0.18648E-04  2400   0.219E-02    0.365E-02
DAV:  15    -0.501367438817E+03   -0.16349E-03   -0.60205E-05  2400   0.136E-02    0.221E-02
DAV:  16    -0.501367531342E+03   -0.92524E-04   -0.27425E-05  2592   0.825E-03    0.125E-02
DAV:  17    -0.501367607145E+03   -0.75803E-04   -0.10896E-05  2208   0.537E-03    0.841E-03
DAV:  18    -0.501367679389E+03   -0.72244E-04   -0.47177E-06  1776   0.337E-03    0.477E-03
DAV:  19    -0.501367728068E+03   -0.48679E-04   -0.20260E-06  1488   0.224E-03    0.364E-03
DAV:  20    -0.501367766035E+03   -0.37966E-04   -0.10302E-06  1440   0.157E-03    0.300E-03
DAV:  21    -0.501367818623E+03   -0.52588E-04   -0.18194E-06  1536   0.159E-03    0.218E-03
DAV:  22    -0.501367877000E+03   -0.58377E-04   -0.28514E-06  1584   0.173E-03    0.203E-03
DAV:  23    -0.501367902188E+03   -0.25188E-04   -0.93229E-07  1392   0.119E-03    0.155E-03
DAV:  24    -0.501367911370E+03   -0.91826E-05   -0.29400E-07  1152   0.878E-04    0.146E-03
DAV:  25    -0.501367918342E+03   -0.69720E-05   -0.21151E-07  1152   0.781E-04    0.113E-03
DAV:  26    -0.501367927503E+03   -0.91603E-05   -0.27484E-07  1152   0.755E-04    0.817E-04
DAV:  27    -0.501367935590E+03   -0.80877E-05   -0.39636E-07  1200   0.802E-04    0.699E-04
DAV:  28    -0.501367939585E+03   -0.39944E-05   -0.16118E-07  1152   0.664E-04    0.556E-04
DAV:  29    -0.501367941221E+03   -0.16361E-05   -0.81748E-08  1056   0.550E-04    0.497E-04
DAV:  30    -0.501367942480E+03   -0.12595E-05   -0.56734E-08  1056   0.467E-04    0.470E-04
DAV:  31    -0.501367943440E+03   -0.95968E-06   -0.34592E-08  1056   0.412E-04
   4 F= -.50136794E+03 E0= -.50136782E+03  d E =-.832209E+00  mag=    12.0000
 trial-energy change:   -0.832209  1 .order   -0.847462   -2.634761    0.939837
 step:   0.6635(harm=  0.6681)  dis= 0.08220  next Energy=  -501.494148 (dE=-0.958E+00)
 bond charge predicted
       N       E                     dE             d eps       ncg     rms          rms(c)
DAV:   1    -0.501367423172E+03    0.51931E-03   -0.53208E+01  1536   0.114E+01    0.271E+00
DAV:   2    -0.501520374071E+03   -0.15295E+00   -0.17545E+00  2112   0.262E+00    0.368E+00
DAV:   3    -0.501500535484E+03    0.19839E-01   -0.17315E-01  2544   0.756E-01    0.269E+00
DAV:   4    -0.501504430997E+03   -0.38955E-02   -0.57788E-02  2592   0.413E-01    0.233E+00
DAV:   5    -0.501496251758E+03    0.81792E-02   -0.12379E-01  2496   0.589E-01    0.115E+00
DAV:   6    -0.501494171717E+03    0.20800E-02   -0.72785E-02  2688   0.449E-01    0.586E-01
DAV:   7    -0.501493060679E+03    0.11110E-02   -0.18738E-02  2592   0.212E-01    0.316E-01
DAV:   8    -0.501492788305E+03    0.27237E-03   -0.39130E-03  2400   0.103E-01    0.233E-01
DAV:   9    -0.501492773514E+03    0.14791E-04   -0.91859E-04  2400   0.546E-02    0.139E-01
DAV:  10    -0.501492956725E+03   -0.18321E-03   -0.11348E-03  2304   0.586E-02    0.102E-01
DAV:  11    -0.501493035703E+03   -0.78978E-04   -0.57690E-04  2496   0.396E-02    0.386E-02
DAV:  12    -0.501493151089E+03   -0.11539E-03   -0.11750E-04  2496   0.178E-02    0.231E-02
DAV:  13    -0.501493219083E+03   -0.67994E-04   -0.37067E-05  2544   0.101E-02    0.187E-02
DAV:  14    -0.501493289212E+03   -0.70128E-04   -0.99570E-06  2352   0.534E-03    0.121E-02
DAV:  15    -0.501493366408E+03   -0.77196E-04   -0.50433E-06  1968   0.388E-03    0.716E-03
DAV:  16    -0.501493421928E+03   -0.55520E-04   -0.23808E-06  1728   0.258E-03    0.354E-03
DAV:  17    -0.501493451618E+03   -0.29690E-04   -0.83926E-07  1296   0.178E-03    0.238E-03
DAV:  18    -0.501493480766E+03   -0.29149E-04   -0.55094E-07  1296   0.128E-03    0.168E-03
DAV:  19    -0.501493505209E+03   -0.24443E-04   -0.38928E-07  1296   0.104E-03    0.117E-03
DAV:  20    -0.501493528265E+03   -0.23056E-04   -0.33133E-07  1200   0.874E-04    0.971E-04
DAV:  21    -0.501493548985E+03   -0.20720E-04   -0.32725E-07  1248   0.843E-04    0.917E-04
DAV:  22    -0.501493568738E+03   -0.19753E-04   -0.39185E-07  1248   0.806E-04    0.709E-04
DAV:  23    -0.501493587283E+03   -0.18545E-04   -0.41982E-07  1296   0.753E-04    0.665E-04
DAV:  24    -0.501493594123E+03   -0.68398E-05   -0.14412E-07  1152   0.638E-04    0.609E-04
DAV:  25    -0.501493597154E+03   -0.30315E-05   -0.81414E-08  1056   0.524E-04    0.560E-04
DAV:  26    -0.501493599227E+03   -0.20726E-05   -0.59104E-08  1056   0.489E-04    0.511E-04
DAV:  27    -0.501493601341E+03   -0.21144E-05   -0.63688E-08  1056   0.446E-04    0.469E-04
DAV:  28    -0.501493603027E+03   -0.16853E-05   -0.57879E-08  1056   0.451E-04    0.452E-04
DAV:  29    -0.501493603761E+03   -0.73414E-06   -0.44314E-08  1056   0.419E-04
   5 F= -.50149360E+03 E0= -.50149347E+03  d E =-.957870E+00  mag=    12.0000
 curvature:  -0.42 expect dE=-0.738E+00 dE for cont linesearch -0.336E-06
 trial: gam= 0.67779 g(F)=  0.177E+01 g(S)=  0.000E+00 ort = 0.171E-02 (trialstep = 0.858E+00)
 search vector abs. value=  0.344E+01
 bond charge predicted
       N       E                     dE             d eps       ncg     rms          rms(c)
DAV:   1    -0.500404853263E+03    0.10887E+01   -0.62743E+02  1536   0.391E+01    0.844E+00
DAV:   2    -0.502283068900E+03   -0.18782E+01   -0.20314E+01  2208   0.859E+00    0.747E+00
DAV:   3    -0.502213415313E+03    0.69654E-01   -0.16005E+00  2448   0.262E+00    0.546E+00
DAV:   4    -0.502248841403E+03   -0.35426E-01   -0.13337E+00  2976   0.160E+00    0.455E+00
DAV:   5    -0.502200234939E+03    0.48606E-01   -0.10574E+00  2544   0.140E+00    0.344E+00
DAV:   6    -0.502162090916E+03    0.38144E-01   -0.52481E-01  2448   0.107E+00    0.135E+00
DAV:   7    -0.502155045395E+03    0.70455E-02   -0.10718E-01  2640   0.579E-01    0.470E-01
DAV:   8    -0.502158267623E+03   -0.32222E-02   -0.23059E-02  2352   0.274E-01    0.391E-01
DAV:   9    -0.502159447438E+03   -0.11798E-02   -0.77113E-03  2688   0.159E-01    0.231E-01
DAV:  10    -0.502160769233E+03   -0.13218E-02   -0.43460E-03  2400   0.100E-01    0.182E-01
DAV:  11    -0.502161327242E+03   -0.55801E-03   -0.20970E-03  2544   0.727E-02    0.108E-01
DAV:  12    -0.502161673454E+03   -0.34621E-03   -0.53687E-04  2304   0.384E-02    0.567E-02
DAV:  13    -0.502161901801E+03   -0.22835E-03   -0.20897E-04  2304   0.256E-02    0.453E-02
DAV:  14    -0.502162063923E+03   -0.16212E-03   -0.11191E-04  2496   0.155E-02    0.291E-02
DAV:  15    -0.502162184157E+03   -0.12023E-03   -0.52965E-05  2400   0.107E-02    0.226E-02
DAV:  16    -0.502162307132E+03   -0.12297E-03   -0.36505E-05  2160   0.807E-03    0.155E-02
DAV:  17    -0.502162405574E+03   -0.98442E-04   -0.22545E-05  2256   0.652E-03    0.115E-02
DAV:  18    -0.502162476046E+03   -0.70472E-04   -0.11265E-05  2064   0.460E-03    0.752E-03
DAV:  19    -0.502162503764E+03   -0.27717E-04   -0.28567E-06  1584   0.286E-03    0.640E-03
DAV:  20    -0.502162534889E+03   -0.31125E-04   -0.19813E-06  1536   0.210E-03    0.430E-03
DAV:  21    -0.502162570140E+03   -0.35251E-04   -0.17595E-06  1488   0.194E-03    0.256E-03
DAV:  22    -0.502162600189E+03   -0.30050E-04   -0.16298E-06  1536   0.171E-03    0.177E-03
DAV:  23    -0.502162612007E+03   -0.11817E-04   -0.31732E-07  1200   0.105E-03    0.143E-03
DAV:  24    -0.502162619222E+03   -0.72157E-05   -0.17802E-07  1104   0.820E-04    0.118E-03
DAV:  25    -0.502162628143E+03   -0.89203E-05   -0.22183E-07  1152   0.777E-04    0.997E-04
DAV:  26    -0.502162639541E+03   -0.11398E-04   -0.41390E-07  1248   0.829E-04    0.890E-04
DAV:  27    -0.502162650382E+03   -0.10841E-04   -0.41306E-07  1200   0.806E-04    0.776E-04
DAV:  28    -0.502162654883E+03   -0.45008E-05   -0.18545E-07  1104   0.711E-04    0.657E-04
DAV:  29    -0.502162657304E+03   -0.24212E-05   -0.13223E-07  1104   0.597E-04    0.595E-04
DAV:  30    -0.502162658609E+03   -0.13054E-05   -0.80372E-08  1056   0.549E-04    0.539E-04
DAV:  31    -0.502162659390E+03   -0.78102E-06   -0.52529E-08  1056   0.458E-04
   6 F= -.50216266E+03 E0= -.50216266E+03  d E =-.669056E+00  mag=    12.0000
 trial-energy change:   -0.669056  1 .order   -0.657545   -1.523391    0.208301
 step:   0.7581(harm=  0.7546)  dis= 0.10164  next Energy=  -502.174743 (dE=-0.681E+00)
 bond charge predicted
       N       E                     dE             d eps       ncg     rms          rms(c)
DAV:   1    -0.502154805621E+03    0.78530E-02   -0.85250E+00  1536   0.456E+00    0.903E-01
DAV:   2    -0.502175240049E+03   -0.20434E-01   -0.22385E-01  2160   0.947E-01    0.900E-01
DAV:   3    -0.502175042795E+03    0.19725E-03   -0.15758E-02  2448   0.256E-01    0.651E-01
DAV:   4    -0.502175699569E+03   -0.65677E-03   -0.12178E-02  2976   0.175E-01    0.604E-01
DAV:   5    -0.502174737667E+03    0.96190E-03   -0.16768E-02  2640   0.166E-01    0.422E-01
DAV:   6    -0.502174266615E+03    0.47105E-03   -0.79612E-03  2448   0.126E-01    0.162E-01
DAV:   7    -0.502174242413E+03    0.24202E-04   -0.17510E-03  2544   0.678E-02    0.697E-02
DAV:   8    -0.502174316576E+03   -0.74163E-04   -0.39051E-04  2352   0.344E-02    0.569E-02
DAV:   9    -0.502174386476E+03   -0.69900E-04   -0.12153E-04  2496   0.181E-02    0.296E-02
DAV:  10    -0.502174478040E+03   -0.91564E-04   -0.66173E-05  2544   0.143E-02    0.227E-02
DAV:  11    -0.502174540649E+03   -0.62610E-04   -0.29359E-05  2304   0.958E-03    0.109E-02
DAV:  12    -0.502174574571E+03   -0.33921E-04   -0.92364E-06  2400   0.511E-03    0.776E-03
DAV:  13    -0.502174596825E+03   -0.22254E-04   -0.16640E-06  1296   0.271E-03    0.551E-03
DAV:  14    -0.502174628512E+03   -0.31687E-04   -0.15265E-06  1392   0.202E-03    0.343E-03
DAV:  15    -0.502174647794E+03   -0.19283E-04   -0.57171E-07  1200   0.147E-03    0.207E-03
DAV:  16    -0.502174661792E+03   -0.13997E-04   -0.32678E-07  1152   0.113E-03    0.163E-03
DAV:  17    -0.502174675316E+03   -0.13524E-04   -0.32238E-07  1248   0.944E-04    0.988E-04
DAV:  18    -0.502174685987E+03   -0.10671E-04   -0.17360E-07  1104   0.769E-04    0.923E-04
DAV:  19    -0.502174692810E+03   -0.68230E-05   -0.11895E-07  1056   0.664E-04    0.730E-04
DAV:  20    -0.502174700306E+03   -0.74953E-05   -0.14887E-07  1152   0.632E-04    0.692E-04
DAV:  21    -0.502174707031E+03   -0.67255E-05   -0.11923E-07  1104   0.589E-04    0.586E-04
DAV:  22    -0.502174714054E+03   -0.70233E-05   -0.16390E-07  1152   0.599E-04    0.573E-04
DAV:  23    -0.502174717201E+03   -0.31467E-05   -0.91644E-08  1056   0.575E-04    0.508E-04
DAV:  24    -0.502174718688E+03   -0.14872E-05   -0.66084E-08  1056   0.484E-04    0.507E-04
DAV:  25    -0.502174719650E+03   -0.96187E-06   -0.45617E-08  1056   0.446E-04
   7 F= -.50217472E+03 E0= -.50217472E+03  d E =-.681116E+00  mag=    12.0000
 curvature:  -0.73 expect dE=-0.822E+00 dE for cont linesearch -0.567E-08
 trial: gam= 0.57267 g(F)=  0.113E+01 g(S)=  0.000E+00 ort = 0.163E-03 (trialstep = 0.838E+00)
 search vector abs. value=  0.225E+01
 bond charge predicted
       N       E                     dE             d eps       ncg     rms          rms(c)
DAV:   1    -0.501573090546E+03    0.60163E+00   -0.34976E+02  1536   0.272E+01    0.880E+00
DAV:   2    -0.502586267574E+03   -0.10132E+01   -0.13530E+01  2304   0.706E+00    0.105E+01
DAV:   3    -0.502323929992E+03    0.26234E+00   -0.20061E+00  2784   0.237E+00    0.501E+00
DAV:   4    -0.502315931291E+03    0.79987E-02   -0.95018E-01  2208   0.150E+00    0.412E+00
DAV:   5    -0.502300069370E+03    0.15862E-01   -0.13819E+00  2736   0.148E+00    0.311E+00
DAV:   6    -0.502263596625E+03    0.36473E-01   -0.68397E-01  2688   0.100E+00    0.153E+00
DAV:   7    -0.502256170275E+03    0.74263E-02   -0.11659E-01  2400   0.528E-01    0.737E-01
DAV:   8    -0.502257284357E+03   -0.11141E-02   -0.33391E-02  2400   0.286E-01    0.532E-01
DAV:   9    -0.502257096195E+03    0.18816E-03   -0.12164E-02  2544   0.170E-01    0.303E-01
DAV:  10    -0.502258092554E+03   -0.99636E-03   -0.78446E-03  2208   0.138E-01    0.214E-01
DAV:  11    -0.502258474843E+03   -0.38229E-03   -0.25836E-03  2544   0.823E-02    0.840E-02
DAV:  12    -0.502258991100E+03   -0.51626E-03   -0.65219E-04  2448   0.427E-02    0.706E-02
DAV:  13    -0.502259341907E+03   -0.35081E-03   -0.22604E-04  2688   0.232E-02    0.572E-02
DAV:  14    -0.502259787513E+03   -0.44561E-03   -0.27994E-04  2208   0.176E-02    0.424E-02
DAV:  15    -0.502260121142E+03   -0.33363E-03   -0.23559E-04  2256   0.161E-02    0.355E-02
DAV:  16    -0.502260363370E+03   -0.24223E-03   -0.17581E-04  2208   0.123E-02    0.297E-02
DAV:  17    -0.502260600361E+03   -0.23699E-03   -0.24291E-04  2256   0.134E-02    0.275E-02
DAV:  18    -0.502260822081E+03   -0.22172E-03   -0.46707E-04  2160   0.171E-02    0.188E-02
DAV:  19    -0.502260889242E+03   -0.67161E-04   -0.20276E-04  2208   0.121E-02    0.165E-02
DAV:  20    -0.502260870632E+03    0.18610E-04   -0.17980E-04  2016   0.107E-02    0.110E-02
DAV:  21    -0.502260826126E+03    0.44506E-04   -0.14254E-04  2208   0.977E-03    0.705E-03
DAV:  22    -0.502260842316E+03   -0.16190E-04   -0.13405E-05  2016   0.442E-03    0.527E-03
DAV:  23    -0.502260839728E+03    0.25876E-05   -0.77940E-06  1680   0.278E-03    0.364E-03
DAV:  24    -0.502260866908E+03   -0.27180E-04   -0.27332E-06  1536   0.194E-03    0.253E-03
DAV:  25    -0.502260912489E+03   -0.45581E-04   -0.20101E-06  1584   0.158E-03    0.188E-03
DAV:  26    -0.502260941031E+03   -0.28542E-04   -0.24246E-06  1344   0.148E-03    0.149E-03
DAV:  27    -0.502260962851E+03   -0.21820E-04   -0.93169E-07  1440   0.122E-03    0.115E-03
DAV:  28    -0.502260978273E+03   -0.15422E-04   -0.40145E-07  1200   0.848E-04    0.105E-03
DAV:  29    -0.502260983390E+03   -0.51169E-05   -0.30053E-07  1104   0.784E-04    0.895E-04
DAV:  30    -0.502260992238E+03   -0.88482E-05   -0.44027E-07  1152   0.829E-04    0.726E-04
DAV:  31    -0.502261000824E+03   -0.85858E-05   -0.36247E-07  1152   0.827E-04    0.651E-04
DAV:  32    -0.502261004402E+03   -0.35781E-05   -0.22000E-07  1152   0.727E-04    0.591E-04
DAV:  33    -0.502261005535E+03   -0.11332E-05   -0.17993E-07  1056   0.674E-04    0.526E-04
DAV:  34    -0.502261006248E+03   -0.71300E-06   -0.66472E-08  1056   0.527E-04
   8 F= -.50226101E+03 E0= -.50226101E+03  d E =-.862866E-01  mag=    12.0000
 trial-energy change:   -0.086287  1 .order   -0.033454   -0.943202    0.876295
 step:   0.4703(harm=  0.4343)  dis= 0.08041  next Energy=  -502.448766 (dE=-0.274E+00)
 bond charge predicted
       N       E                     dE             d eps       ncg     rms          rms(c)
DAV:   1    -0.502335425592E+03   -0.74420E-01   -0.66463E+01  1536   0.118E+01    0.465E+00
DAV:   2    -0.502516798435E+03   -0.18137E+00   -0.22576E+00  2208   0.296E+00    0.435E+00
DAV:   3    -0.502478361068E+03    0.38437E-01   -0.69877E-01  2880   0.136E+00    0.253E+00
DAV:   4    -0.502460345532E+03    0.18016E-01   -0.32521E-01  2448   0.850E-01    0.200E+00
DAV:   5    -0.502453031807E+03    0.73137E-02   -0.24405E-01  2496   0.707E-01    0.122E+00
DAV:   6    -0.502445708828E+03    0.73230E-02   -0.83398E-02  2784   0.405E-01    0.587E-01
DAV:   7    -0.502446111222E+03   -0.40239E-03   -0.14514E-02  2352   0.194E-01    0.346E-01
DAV:   8    -0.502446641039E+03   -0.52982E-03   -0.71546E-03  2544   0.125E-01    0.257E-01
DAV:   9    -0.502447214843E+03   -0.57380E-03   -0.33342E-03  2256   0.876E-02    0.152E-01
DAV:  10    -0.502447632079E+03   -0.41724E-03   -0.12259E-03  2496   0.574E-02    0.667E-02
DAV:  11    -0.502447881896E+03   -0.24982E-03   -0.34260E-04  2496   0.301E-02    0.406E-02
DAV:  12    -0.502448052750E+03   -0.17085E-03   -0.10935E-04  2400   0.169E-02    0.276E-02
DAV:  13    -0.502448225934E+03   -0.17318E-03   -0.46646E-05  2304   0.106E-02    0.198E-02
DAV:  14    -0.502448405397E+03   -0.17946E-03   -0.37229E-05  2208   0.839E-03    0.123E-02
DAV:  15    -0.502448512190E+03   -0.10679E-03   -0.15796E-05  2160   0.559E-03    0.850E-03
DAV:  16    -0.502448604008E+03   -0.91818E-04   -0.11205E-05  2016   0.397E-03    0.719E-03
DAV:  17    -0.502448680442E+03   -0.76433E-04   -0.85758E-06  1968   0.334E-03    0.518E-03
DAV:  18    -0.502448729618E+03   -0.49176E-04   -0.47310E-06  1776   0.251E-03    0.321E-03
DAV:  19    -0.502448752237E+03   -0.22618E-04   -0.11761E-06  1296   0.167E-03    0.257E-03
DAV:  20    -0.502448772711E+03   -0.20474E-04   -0.11441E-06  1344   0.144E-03    0.195E-03
DAV:  21    -0.502448790931E+03   -0.18220E-04   -0.10025E-06  1248   0.130E-03    0.134E-03
DAV:  22    -0.502448800293E+03   -0.93624E-05   -0.40578E-07  1200   0.998E-04    0.105E-03
DAV:  23    -0.502448804758E+03   -0.44651E-05   -0.17577E-07  1056   0.828E-04    0.853E-04
DAV:  24    -0.502448809246E+03   -0.44881E-05   -0.18756E-07  1152   0.738E-04    0.755E-04
DAV:  25    -0.502448813489E+03   -0.42421E-05   -0.15334E-07  1152   0.698E-04    0.667E-04
DAV:  26    -0.502448816662E+03   -0.31738E-05   -0.11841E-07  1056   0.630E-04    0.589E-04
DAV:  27    -0.502448819105E+03   -0.24426E-05   -0.12239E-07  1152   0.585E-04    0.550E-04
DAV:  28    -0.502448820601E+03   -0.14964E-05   -0.76033E-08  1056   0.532E-04    0.524E-04
DAV:  29    -0.502448821362E+03   -0.76049E-06   -0.52190E-08  1056   0.454E-04
   9 F= -.50244882E+03 E0= -.50244882E+03  d E =-.274102E+00  mag=    12.0000
 curvature:  -0.43 expect dE=-0.277E+00 dE for cont linesearch -0.355E-08
 trial: gam= 0.51357 g(F)=  0.642E+00 g(S)=  0.000E+00 ort =-0.136E-03 (trialstep = 0.764E+00)
 search vector abs. value=  0.124E+01
 bond charge predicted
       N       E                     dE             d eps       ncg     rms          rms(c)
DAV:   1    -0.502193708669E+03    0.25511E+00   -0.17447E+02  1536   0.211E+01    0.469E+00
DAV:   2    -0.502745147646E+03   -0.55144E+00   -0.63002E+00  2208   0.513E+00    0.514E+00
DAV:   3    -0.502692443670E+03    0.52704E-01   -0.83989E-01  2688   0.175E+00    0.373E+00
DAV:   4    -0.502691751917E+03    0.69175E-03   -0.24129E-01  2736   0.772E-01    0.285E+00
DAV:   5    -0.502711011051E+03   -0.19259E-01   -0.34678E-01  2592   0.812E-01    0.246E+00
DAV:   6    -0.502685688697E+03    0.25322E-01   -0.34865E-01  2496   0.740E-01    0.106E+00
DAV:   7    -0.502681749572E+03    0.39391E-02   -0.75466E-02  2544   0.413E-01    0.492E-01
DAV:   8    -0.502681931942E+03   -0.18237E-03   -0.13773E-02  2448   0.194E-01    0.236E-01
DAV:   9    -0.502682540090E+03   -0.60815E-03   -0.32502E-03  2496   0.100E-01    0.135E-01
DAV:  10    -0.502683683790E+03   -0.11437E-02   -0.13671E-03  2304   0.625E-02    0.839E-02
DAV:  11    -0.502684493183E+03   -0.80939E-03   -0.56374E-04  2400   0.395E-02    0.522E-02
DAV:  12    -0.502685044469E+03   -0.55129E-03   -0.22001E-04  2400   0.224E-02    0.408E-02
DAV:  13    -0.502685546564E+03   -0.50209E-03   -0.11731E-04  2208   0.141E-02    0.274E-02
DAV:  14    -0.502686057433E+03   -0.51087E-03   -0.65983E-05  2256   0.110E-02    0.229E-02
DAV:  15    -0.502686485432E+03   -0.42800E-03   -0.40710E-05  2160   0.799E-03    0.188E-02
DAV:  16    -0.502686871955E+03   -0.38652E-03   -0.31471E-05  2256   0.639E-03    0.113E-02
DAV:  17    -0.502687191810E+03   -0.31985E-03   -0.20953E-05  2016   0.523E-03    0.669E-03
DAV:  18    -0.502687401847E+03   -0.21004E-03   -0.92698E-06  1968   0.358E-03    0.482E-03
DAV:  19    -0.502687522377E+03   -0.12053E-03   -0.33887E-06  1728   0.249E-03    0.314E-03
DAV:  20    -0.502687572622E+03   -0.50245E-04   -0.61298E-07  1152   0.150E-03    0.237E-03
DAV:  21    -0.502687619326E+03   -0.46704E-04   -0.74517E-07  1296   0.126E-03    0.174E-03
DAV:  22    -0.502687681980E+03   -0.62653E-04   -0.10823E-06  1392   0.128E-03    0.133E-03
DAV:  23    -0.502687718938E+03   -0.36958E-04   -0.39065E-07  1200   0.103E-03    0.110E-03
DAV:  24    -0.502687740254E+03   -0.21317E-04   -0.27448E-07  1104   0.934E-04    0.910E-04
DAV:  25    -0.502687758564E+03   -0.18309E-04   -0.28927E-07  1104   0.919E-04    0.839E-04
DAV:  26    -0.502687772062E+03   -0.13498E-04   -0.27715E-07  1104   0.909E-04    0.741E-04
DAV:  27    -0.502687781271E+03   -0.92095E-05   -0.25222E-07  1152   0.863E-04    0.642E-04
DAV:  28    -0.502687789582E+03   -0.83109E-05   -0.23943E-07  1104   0.790E-04    0.565E-04
DAV:  29    -0.502687795221E+03   -0.56393E-05   -0.21253E-07  1104   0.782E-04    0.516E-04
DAV:  30    -0.502687798253E+03   -0.30312E-05   -0.17579E-07  1104   0.726E-04    0.468E-04
DAV:  31    -0.502687799516E+03   -0.12634E-05   -0.12888E-07  1104   0.665E-04    0.435E-04
DAV:  32    -0.502687799745E+03   -0.22904E-06   -0.73856E-08  1056   0.578E-04
  10 F= -.50268780E+03 E0= -.50268780E+03  d E =-.238978E+00  mag=    12.0000
 trial-energy change:   -0.238978  1 .order   -0.247393   -0.490973   -0.003813
 step:   0.7710(harm=  0.7703)  dis= 0.05212  next Energy=  -502.687816 (dE=-0.239E+00)
 bond charge predicted
       N       E                     dE             d eps       ncg     rms          rms(c)
DAV:   1    -0.502687781895E+03    0.17621E-04   -0.13374E-02  1632   0.184E-01    0.347E-02
DAV:   2    -0.502687813205E+03   -0.31310E-04   -0.42553E-04  2208   0.434E-02    0.401E-02
DAV:   3    -0.502687812588E+03    0.61709E-06   -0.54324E-05  2880   0.137E-02    0.283E-02
DAV:   4    -0.502687812610E+03   -0.21959E-07   -0.12309E-05  2352   0.549E-03    0.223E-02
DAV:   5    -0.502687811350E+03    0.12594E-05   -0.17504E-05  2112   0.613E-03    0.190E-02
DAV:   6    -0.502687808763E+03    0.25875E-05   -0.15809E-05  2400   0.555E-03    0.768E-03
DAV:   7    -0.502687809141E+03   -0.37783E-06   -0.35428E-06  1632   0.302E-03
  11 F= -.50268781E+03 E0= -.50268781E+03  d E =-.238988E+00  mag=    12.0000
 curvature:  -0.73 expect dE=-0.411E+00 dE for cont linesearch -0.225E-08
 trial: gam= 0.84005 g(F)=  0.562E+00 g(S)=  0.000E+00 ort =-0.617E-04 (trialstep = 0.660E+00)
 search vector abs. value=  0.143E+01
 bond charge predicted
       N       E                     dE             d eps       ncg     rms          rms(c)
DAV:   1    -0.502432608698E+03    0.25520E+00   -0.15631E+02  1536   0.199E+01    0.452E+00
DAV:   2    -0.502874215981E+03   -0.44161E+00   -0.49789E+00  2064   0.442E+00    0.437E+00
DAV:   3    -0.502851773416E+03    0.22443E-01   -0.64782E-01  2736   0.148E+00    0.292E+00
DAV:   4    -0.502859803904E+03   -0.80305E-02   -0.38576E-01  2976   0.921E-01    0.242E+00
DAV:   5    -0.502846874526E+03    0.12929E-01   -0.30915E-01  2352   0.810E-01    0.144E+00
DAV:   6    -0.502842685326E+03    0.41892E-02   -0.17661E-01  2640   0.606E-01    0.128E+00
DAV:   7    -0.502833875816E+03    0.88095E-02   -0.57626E-02  2640   0.296E-01    0.266E-01
DAV:   8    -0.502836263646E+03   -0.23878E-02   -0.66709E-03  2112   0.138E-01    0.228E-01
DAV:   9    -0.502837633864E+03   -0.13702E-02   -0.21794E-03  2784   0.815E-02    0.144E-01
DAV:  10    -0.502839507637E+03   -0.18738E-02   -0.11649E-03  2544   0.525E-02    0.113E-01
DAV:  11    -0.502840791116E+03   -0.12835E-02   -0.55071E-04  2448   0.359E-02    0.510E-02
DAV:  12    -0.502841520944E+03   -0.72983E-03   -0.15109E-04  2304   0.204E-02    0.337E-02
DAV:  13    -0.502842128199E+03   -0.60725E-03   -0.51808E-05  2592   0.117E-02    0.218E-02
DAV:  14    -0.502842703127E+03   -0.57493E-03   -0.23610E-05  2304   0.761E-03    0.144E-02
DAV:  15    -0.502843194036E+03   -0.49091E-03   -0.13097E-05  2160   0.547E-03    0.101E-02
DAV:  16    -0.502843653037E+03   -0.45900E-03   -0.98666E-06  1872   0.403E-03    0.728E-03
DAV:  17    -0.502844070520E+03   -0.41748E-03   -0.93354E-06  1920   0.361E-03    0.540E-03
DAV:  18    -0.502844317093E+03   -0.24657E-03   -0.42825E-06  1776   0.263E-03    0.389E-03
DAV:  19    -0.502844477804E+03   -0.16071E-03   -0.20597E-06  1536   0.182E-03    0.315E-03
DAV:  20    -0.502844615164E+03   -0.13736E-03   -0.17327E-06  1488   0.163E-03    0.269E-03
DAV:  21    -0.502844738184E+03   -0.12302E-03   -0.15910E-06  1440   0.148E-03    0.193E-03
DAV:  22    -0.502844838992E+03   -0.10081E-03   -0.14394E-06  1440   0.135E-03    0.165E-03
DAV:  23    -0.502844891236E+03   -0.52244E-04   -0.63790E-07  1248   0.107E-03    0.119E-03
DAV:  24    -0.502844929654E+03   -0.38418E-04   -0.51039E-07  1200   0.948E-04    0.937E-04
DAV:  25    -0.502844947316E+03   -0.17662E-04   -0.26502E-07  1152   0.844E-04    0.723E-04
DAV:  26    -0.502844960553E+03   -0.13238E-04   -0.22852E-07  1152   0.735E-04    0.662E-04
DAV:  27    -0.502844969005E+03   -0.84519E-05   -0.18639E-07  1152   0.705E-04    0.521E-04
DAV:  28    -0.502844973977E+03   -0.49721E-05   -0.14666E-07  1104   0.624E-04    0.480E-04
DAV:  29    -0.502844976043E+03   -0.20653E-05   -0.10119E-07  1104   0.578E-04    0.429E-04
DAV:  30    -0.502844976817E+03   -0.77430E-06   -0.63258E-08   960   0.476E-04
  12 F= -.50284498E+03 E0= -.50284498E+03  d E =-.157168E+00  mag=    12.0000
 trial-energy change:   -0.157168  1 .order   -0.165932   -0.370784    0.038920
 step:   0.5894(harm=  0.5975)  dis= 0.06258  next Energy=  -502.847075 (dE=-0.159E+00)
 bond charge predicted
       N       E                     dE             d eps       ncg     rms          rms(c)
DAV:   1    -0.502842682712E+03    0.22933E-02   -0.18044E+00  1536   0.214E+00    0.417E-01
DAV:   2    -0.502847267247E+03   -0.45845E-02   -0.52650E-02  2064   0.460E-01    0.420E-01
DAV:   3    -0.502847024572E+03    0.24267E-03   -0.77111E-03  2784   0.150E-01    0.280E-01
DAV:   4    -0.502846946859E+03    0.77713E-04   -0.31784E-03  2976   0.861E-02    0.219E-01
DAV:   5    -0.502846690336E+03    0.25652E-03   -0.15192E-03  2352   0.668E-02    0.123E-01
DAV:   6    -0.502846687343E+03    0.29927E-05   -0.71026E-04  2640   0.464E-02    0.865E-02
DAV:   7    -0.502846667984E+03    0.19360E-04   -0.31960E-04  2688   0.236E-02    0.294E-02
DAV:   8    -0.502846721513E+03   -0.53529E-04   -0.77718E-05  2544   0.130E-02    0.267E-02
DAV:   9    -0.502846763818E+03   -0.42305E-04   -0.24823E-05  2496   0.765E-03    0.152E-02
DAV:  10    -0.502846827090E+03   -0.63272E-04   -0.15552E-05  2304   0.573E-03    0.135E-02
DAV:  11    -0.502846877166E+03   -0.50076E-04   -0.64131E-06  1872   0.399E-03    0.635E-03
DAV:  12    -0.502846907917E+03   -0.30751E-04   -0.17720E-06  1488   0.244E-03    0.438E-03
DAV:  13    -0.502846933057E+03   -0.25140E-04   -0.59008E-07  1104   0.154E-03    0.302E-03
DAV:  14    -0.502846964987E+03   -0.31931E-04   -0.52232E-07  1200   0.123E-03    0.217E-03
DAV:  15    -0.502846989049E+03   -0.24062E-04   -0.31981E-07  1152   0.109E-03    0.153E-03
DAV:  16    -0.502847012881E+03   -0.23832E-04   -0.32256E-07  1152   0.102E-03    0.110E-03
DAV:  17    -0.502847030168E+03   -0.17287E-04   -0.24675E-07  1008   0.935E-04    0.869E-04
DAV:  18    -0.502847041950E+03   -0.11782E-04   -0.17615E-07   912   0.811E-04    0.703E-04
DAV:  19    -0.502847048205E+03   -0.62552E-05   -0.12026E-07   960   0.702E-04    0.587E-04
DAV:  20    -0.502847054266E+03   -0.60609E-05   -0.93525E-08   912   0.600E-04    0.554E-04
DAV:  21    -0.502847059424E+03   -0.51578E-05   -0.78205E-08   912   0.560E-04    0.487E-04
DAV:  22    -0.502847065687E+03   -0.62624E-05   -0.10103E-07  1008   0.537E-04    0.464E-04
DAV:  23    -0.502847069032E+03   -0.33455E-05   -0.61294E-08   912   0.504E-04    0.423E-04
DAV:  24    -0.502847070822E+03   -0.17902E-05   -0.47542E-08   912   0.442E-04    0.419E-04
DAV:  25    -0.502847071981E+03   -0.11591E-05   -0.35388E-08   912   0.403E-04    0.398E-04
DAV:  26    -0.502847072746E+03   -0.76413E-06   -0.27457E-08   912   0.363E-04
  13 F= -.50284707E+03 E0= -.50284707E+03  d E =-.159264E+00  mag=    12.0000
 curvature:  -0.75 expect dE=-0.356E+00 dE for cont linesearch -0.395E-07
 trial: gam= 0.83728 g(F)=  0.475E+00 g(S)=  0.000E+00 ort = 0.275E-03 (trialstep = 0.626E+00)
 search vector abs. value=  0.148E+01
 bond charge predicted
       N       E                     dE             d eps       ncg     rms          rms(c)
DAV:   1    -0.502725038620E+03    0.12203E+00   -0.14648E+02  1536   0.189E+01    0.371E+00
DAV:   2    -0.503075631542E+03   -0.35059E+00   -0.37916E+00  1920   0.380E+00    0.357E+00
DAV:   3    -0.503061347222E+03    0.14284E-01   -0.55233E-01  2640   0.131E+00    0.241E+00
DAV:   4    -0.503051823742E+03    0.95235E-02   -0.22542E-01  2928   0.695E-01    0.192E+00
DAV:   5    -0.503044655300E+03    0.71684E-02   -0.10165E-01  2256   0.494E-01    0.130E+00
DAV:   6    -0.503044655096E+03    0.20355E-06   -0.92110E-02  2400   0.440E-01    0.800E-01
DAV:   7    -0.503041543659E+03    0.31114E-02   -0.39360E-02  2592   0.274E-01    0.279E-01
DAV:   8    -0.503042393819E+03   -0.85016E-03   -0.54221E-03  2304   0.124E-01    0.163E-01
DAV:   9    -0.503043130358E+03   -0.73654E-03   -0.14797E-03  2688   0.767E-02    0.108E-01
DAV:  10    -0.503044054757E+03   -0.92440E-03   -0.66751E-04  2496   0.444E-02    0.619E-02
DAV:  11    -0.503044620153E+03   -0.56540E-03   -0.27136E-04  2544   0.294E-02    0.369E-02
DAV:  12    -0.503044948877E+03   -0.32872E-03   -0.72444E-05  2448   0.145E-02    0.191E-02
DAV:  13    -0.503045241259E+03   -0.29238E-03   -0.26532E-05  2544   0.861E-03    0.170E-02
DAV:  14    -0.503045474979E+03   -0.23372E-03   -0.14292E-05  2688   0.548E-03    0.924E-03
DAV:  15    -0.503045615023E+03   -0.14004E-03   -0.52096E-06  1872   0.351E-03    0.666E-03
DAV:  16    -0.503045732785E+03   -0.11776E-03   -0.16753E-06  1392   0.212E-03    0.529E-03
DAV:  17    -0.503045920531E+03   -0.18775E-03   -0.25414E-06  1632   0.207E-03    0.380E-03
DAV:  18    -0.503046101060E+03   -0.18053E-03   -0.23282E-06  1632   0.190E-03    0.242E-03
DAV:  19    -0.503046179538E+03   -0.78478E-04   -0.67554E-07  1296   0.130E-03    0.205E-03
DAV:  20    -0.503046210047E+03   -0.30509E-04   -0.23233E-07  1056   0.949E-04    0.174E-03
DAV:  21    -0.503046256324E+03   -0.46277E-04   -0.42782E-07  1200   0.869E-04    0.144E-03
DAV:  22    -0.503046316759E+03   -0.60435E-04   -0.58811E-07  1248   0.933E-04    0.110E-03
DAV:  23    -0.503046380030E+03   -0.63271E-04   -0.81650E-07  1344   0.992E-04    0.888E-04
DAV:  24    -0.503046419162E+03   -0.39132E-04   -0.67367E-07  1344   0.976E-04    0.773E-04
DAV:  25    -0.503046429755E+03   -0.10594E-04   -0.20253E-07  1104   0.790E-04    0.592E-04
DAV:  26    -0.503046435555E+03   -0.57995E-05   -0.15245E-07  1104   0.633E-04    0.537E-04
DAV:  27    -0.503046438606E+03   -0.30513E-05   -0.10064E-07  1056   0.607E-04    0.458E-04
DAV:  28    -0.503046440225E+03   -0.16190E-05   -0.76874E-08  1056   0.493E-04    0.432E-04
DAV:  29    -0.503046441451E+03   -0.12254E-05   -0.63470E-08  1056   0.470E-04    0.398E-04
DAV:  30    -0.503046442107E+03   -0.65674E-06   -0.46716E-08  1056   0.404E-04
  14 F= -.50304644E+03 E0= -.50304644E+03  d E =-.199369E+00  mag=    12.0000
 trial-energy change:   -0.199369  1 .order   -0.197306   -0.297142   -0.097471
 step:   0.9063(harm=  0.9315)  dis= 0.08597  next Energy=  -503.068459 (dE=-0.221E+00)
 bond charge predicted
       N       E                     dE             d eps       ncg     rms          rms(c)
DAV:   1    -0.503007081554E+03    0.39360E-01   -0.29405E+01  1536   0.848E+00    0.180E+00
DAV:   2    -0.503073329329E+03   -0.66248E-01   -0.72508E-01  1920   0.168E+00    0.168E+00
DAV:   3    -0.503071079113E+03    0.22502E-02   -0.10744E-01  2640   0.583E-01    0.116E+00
DAV:   4    -0.503070164442E+03    0.91467E-03   -0.60022E-02  2976   0.351E-01    0.101E+00
DAV:   5    -0.503067763289E+03    0.24012E-02   -0.34058E-02  2592   0.261E-01    0.628E-01
DAV:   6    -0.503067900211E+03   -0.13692E-03   -0.22515E-02  2400   0.213E-01    0.404E-01
DAV:   7    -0.503067161473E+03    0.73874E-03   -0.77874E-03  2640   0.126E-01    0.122E-01
DAV:   8    -0.503067435517E+03   -0.27404E-03   -0.11504E-03  2256   0.584E-02    0.808E-02
DAV:   9    -0.503067625895E+03   -0.19038E-03   -0.34771E-04  2736   0.350E-02    0.493E-02
DAV:  10    -0.503067863120E+03   -0.23723E-03   -0.14723E-04  2448   0.207E-02    0.258E-02
DAV:  11    -0.503067998445E+03   -0.13532E-03   -0.47720E-05  2352   0.131E-02    0.146E-02
DAV:  12    -0.503068081524E+03   -0.83080E-04   -0.14036E-05  2544   0.670E-03    0.904E-03
DAV:  13    -0.503068163042E+03   -0.81518E-04   -0.39958E-06  1632   0.380E-03    0.650E-03
DAV:  14    -0.503068227270E+03   -0.64228E-04   -0.17931E-06  1344   0.244E-03    0.358E-03
DAV:  15    -0.503068263373E+03   -0.36103E-04   -0.62537E-07  1104   0.163E-03    0.296E-03
DAV:  16    -0.503068291265E+03   -0.27892E-04   -0.34760E-07  1152   0.117E-03    0.235E-03
DAV:  17    -0.503068346338E+03   -0.55073E-04   -0.60928E-07  1296   0.120E-03    0.177E-03
DAV:  18    -0.503068403467E+03   -0.57130E-04   -0.55340E-07  1296   0.111E-03    0.129E-03
DAV:  19    -0.503068434291E+03   -0.30824E-04   -0.27341E-07  1152   0.987E-04    0.111E-03
DAV:  20    -0.503068446505E+03   -0.12214E-04   -0.14484E-07  1056   0.768E-04    0.868E-04
DAV:  21    -0.503068459058E+03   -0.12553E-04   -0.14214E-07  1104   0.719E-04    0.776E-04
DAV:  22    -0.503068472433E+03   -0.13376E-04   -0.14924E-07  1104   0.630E-04    0.611E-04
DAV:  23    -0.503068496447E+03   -0.24013E-04   -0.30634E-07  1200   0.688E-04    0.595E-04
DAV:  24    -0.503068512152E+03   -0.15705E-04   -0.24967E-07  1248   0.663E-04    0.464E-04
DAV:  25    -0.503068518264E+03   -0.61121E-05   -0.11940E-07  1152   0.595E-04    0.451E-04
DAV:  26    -0.503068520011E+03   -0.17470E-05   -0.58732E-08  1056   0.511E-04    0.394E-04
DAV:  27    -0.503068520821E+03   -0.80976E-06   -0.42128E-08  1056   0.451E-04
  15 F= -.50306852E+03 E0= -.50306851E+03  d E =-.221448E+00  mag=    12.0000
 curvature:  -1.44 expect dE=-0.107E+01 dE for cont linesearch -0.606E-07
 trial: gam= 1.55057 g(F)=  0.745E+00 g(S)=  0.000E+00 ort = 0.249E-03 (trialstep = 0.235E+00)
 search vector abs. value=  0.431E+01
 bond charge predicted
       N       E                     dE             d eps       ncg     rms          rms(c)
DAV:   1    -0.503072570715E+03   -0.40507E-02   -0.61470E+01  1536   0.124E+01    0.243E+00
DAV:   2    -0.503232630319E+03   -0.16006E+00   -0.17394E+00  1968   0.248E+00    0.268E+00
DAV:   3    -0.503215628675E+03    0.17002E-01   -0.36232E-01  2592   0.895E-01    0.164E+00
DAV:   4    -0.503210546715E+03    0.50820E-02   -0.82885E-02  2928   0.433E-01    0.111E+00
DAV:   5    -0.503209741769E+03    0.80495E-03   -0.31394E-02  2352   0.316E-01    0.778E-01
DAV:   6    -0.503209124072E+03    0.61770E-03   -0.19953E-02  2544   0.261E-01    0.406E-01
DAV:   7    -0.503209025996E+03    0.98077E-04   -0.84555E-03  2544   0.153E-01    0.190E-01
DAV:   8    -0.503209453164E+03   -0.42717E-03   -0.17886E-03  2496   0.716E-02    0.989E-02
DAV:   9    -0.503209882225E+03   -0.42906E-03   -0.56239E-04  2544   0.414E-02    0.671E-02
DAV:  10    -0.503210413752E+03   -0.53153E-03   -0.21306E-04  2304   0.251E-02    0.336E-02
DAV:  11    -0.503210729701E+03   -0.31595E-03   -0.11302E-04  2544   0.177E-02    0.219E-02
DAV:  12    -0.503210931080E+03   -0.20138E-03   -0.41234E-05  2592   0.985E-03    0.150E-02
DAV:  13    -0.503211096939E+03   -0.16586E-03   -0.13407E-05  2256   0.578E-03    0.932E-03
DAV:  14    -0.503211210223E+03   -0.11328E-03   -0.56646E-06  1776   0.362E-03    0.504E-03
DAV:  15    -0.503211288027E+03   -0.77804E-04   -0.16087E-06  1296   0.230E-03    0.375E-03
DAV:  16    -0.503211345740E+03   -0.57713E-04   -0.67585E-07  1248   0.150E-03    0.301E-03
DAV:  17    -0.503211427019E+03   -0.81279E-04   -0.87232E-07  1248   0.138E-03    0.241E-03
DAV:  18    -0.503211532237E+03   -0.10522E-03   -0.13484E-06  1392   0.147E-03    0.173E-03
DAV:  19    -0.503211597895E+03   -0.65657E-04   -0.64255E-07  1248   0.117E-03    0.153E-03
DAV:  20    -0.503211632423E+03   -0.34528E-04   -0.32270E-07  1200   0.968E-04    0.128E-03
DAV:  21    -0.503211662635E+03   -0.30212E-04   -0.28859E-07  1152   0.883E-04    0.111E-03
DAV:  22    -0.503211687514E+03   -0.24879E-04   -0.31320E-07  1200   0.861E-04    0.869E-04
DAV:  23    -0.503211717143E+03   -0.29630E-04   -0.36704E-07  1152   0.813E-04    0.746E-04
DAV:  24    -0.503211736396E+03   -0.19253E-04   -0.31777E-07  1152   0.830E-04    0.602E-04
DAV:  25    -0.503211748680E+03   -0.12284E-04   -0.32059E-07  1200   0.787E-04    0.476E-04
DAV:  26    -0.503211751688E+03   -0.30082E-05   -0.98979E-08  1104   0.647E-04    0.459E-04
DAV:  27    -0.503211753052E+03   -0.13633E-05   -0.61421E-08  1056   0.500E-04    0.406E-04
DAV:  28    -0.503211753913E+03   -0.86083E-06   -0.42249E-08  1056   0.473E-04
  16 F= -.50321175E+03 E0= -.50321166E+03  d E =-.143233E+00  mag=    12.0000
 trial-energy change:   -0.143233  1 .order   -0.143475   -0.174792   -0.112158
 step:   0.6545(harm=  0.6545)  dis= 0.10926  next Energy=  -503.312416 (dE=-0.244E+00)
 bond charge predicted
       N       E                     dE             d eps       ncg     rms          rms(c)
DAV:   1    -0.502846631406E+03    0.36512E+00   -0.19670E+02  1536   0.222E+01    0.447E+00
DAV:   2    -0.503369661802E+03   -0.52303E+00   -0.56439E+00  1968   0.443E+00    0.521E+00
DAV:   3    -0.503334868654E+03    0.34793E-01   -0.11457E+00  2640   0.156E+00    0.356E+00
DAV:   4    -0.503316910425E+03    0.17958E-01   -0.24918E-01  2688   0.763E-01    0.224E+00
DAV:   5    -0.503315189237E+03    0.17212E-02   -0.10718E-01  2352   0.613E-01    0.182E+00
DAV:   6    -0.503293037780E+03    0.22151E-01   -0.13963E-01  2400   0.625E-01    0.162E+00
DAV:   7    -0.503276981712E+03    0.16056E-01   -0.57967E-02  2352   0.362E-01    0.173E+00
DAV:   8    -0.503280798807E+03   -0.38171E-02   -0.72695E-03  1968   0.150E-01    0.180E+00
DAV:   9    -0.503292102890E+03   -0.11304E-01   -0.33239E-02  2256   0.308E-01    0.151E+00
DAV:  10    -0.503288429459E+03    0.36734E-02   -0.63483E-02  2256   0.353E-01    0.140E+00
DAV:  11    -0.503243350201E+03    0.45079E-01   -0.10529E-01  2256   0.530E-01    0.193E+00
DAV:  12    -0.503254297516E+03   -0.10947E-01   -0.12879E-02  1728   0.196E-01    0.188E+00
DAV:  13    -0.503264123159E+03   -0.98256E-02   -0.57902E-03  2352   0.141E-01    0.155E+00
DAV:  14    -0.503294247279E+03   -0.30124E-01   -0.23229E-02  2304   0.280E-01    0.105E+00
DAV:  15    -0.503300356587E+03   -0.61093E-02   -0.85478E-02  2304   0.482E-01    0.603E-01
DAV:  16    -0.503290495269E+03    0.98613E-02   -0.28059E-02  2016   0.273E-01    0.677E-01
DAV:  17    -0.503278065683E+03    0.12430E-01   -0.12478E-02  2352   0.191E-01    0.683E-01
DAV:  18    -0.503274466517E+03    0.35992E-02   -0.41595E-03  1968   0.104E-01    0.719E-01
DAV:  19    -0.503276942024E+03   -0.24755E-02   -0.93098E-04  2112   0.587E-02    0.721E-01
DAV:  20    -0.503286071892E+03   -0.91299E-02   -0.85879E-03  2256   0.159E-01    0.709E-01
DAV:  21    -0.503294885842E+03   -0.88140E-02   -0.18868E-02  2304   0.225E-01    0.726E-01
DAV:  22    -0.503300606211E+03   -0.57204E-02   -0.22686E-02  2304   0.250E-01    0.859E-01
DAV:  23    -0.503302301743E+03   -0.16955E-02   -0.78336E-03  2112   0.158E-01    0.701E-01
DAV:  24    -0.503307857261E+03   -0.55555E-02   -0.38328E-03  2256   0.930E-02    0.582E-01
DAV:  25    -0.503312879429E+03   -0.50222E-02   -0.12767E-02  2208   0.175E-01    0.555E-01
DAV:  26    -0.503315361228E+03   -0.24818E-02   -0.13891E-02  2304   0.195E-01    0.601E-01
DAV:  27    -0.503316368283E+03   -0.10071E-02   -0.93933E-03  2208   0.157E-01    0.765E-01
DAV:  28    -0.503316442610E+03   -0.74327E-04   -0.23411E-03  2064   0.906E-02    0.718E-01
DAV:  29    -0.503317083308E+03   -0.64070E-03   -0.83243E-04  2256   0.448E-02    0.702E-01
DAV:  30    -0.503317164825E+03   -0.81517E-04   -0.12339E-04  2304   0.179E-02    0.682E-01
DAV:  31    -0.503317036053E+03    0.12877E-03   -0.68138E-03  2256   0.141E-01    0.624E-01
DAV:  32    -0.503314760522E+03    0.22755E-02   -0.59043E-02  2304   0.411E-01    0.788E-01
DAV:  33    -0.503310531399E+03    0.42291E-02   -0.67365E-02  2304   0.433E-01    0.144E+00
DAV:  34    -0.503310616491E+03   -0.85092E-04   -0.12979E-02  2208   0.188E-01    0.176E+00
DAV:  35    -0.503312179546E+03   -0.15631E-02   -0.84839E-04  2064   0.574E-02    0.170E+00
DAV:  36    -0.503312680975E+03   -0.50143E-03   -0.14795E-04  2640   0.193E-02    0.168E+00
DAV:  37    -0.503312683882E+03   -0.29067E-05   -0.13123E-05  2256   0.600E-03    0.168E+00
DAV:  38    -0.503312712167E+03   -0.28285E-04   -0.20442E-06  1776   0.237E-03    0.168E+00
DAV:  39    -0.503312717358E+03   -0.51906E-05   -0.35545E-07  1152   0.124E-03    0.167E+00
DAV:  40    -0.503312447827E+03    0.26953E-03   -0.25503E-05  2304   0.891E-03    0.170E+00
DAV:  41    -0.503313185499E+03   -0.73767E-03   -0.47903E-05  1920   0.109E-02    0.169E+00
DAV:  42    -0.503314707159E+03   -0.15217E-02   -0.25452E-04  1824   0.252E-02    0.166E+00
DAV:  43    -0.503316090586E+03   -0.13834E-02   -0.43607E-04  2112   0.335E-02    0.158E+00
DAV:  44    -0.503318079505E+03   -0.19889E-02   -0.19730E-03  2160   0.746E-02    0.142E+00
DAV:  45    -0.503321197193E+03   -0.31177E-02   -0.88615E-03  2208   0.157E-01    0.117E+00
DAV:  46    -0.503324211329E+03   -0.30141E-02   -0.18432E-02  2256   0.225E-01    0.103E+00
DAV:  47    -0.503326874922E+03   -0.26636E-02   -0.30963E-02  2256   0.296E-01    0.109E+00
DAV:  48    -0.503328555283E+03   -0.16804E-02   -0.72079E-03  1968   0.141E-01    0.111E+00
DAV:  49    -0.503327827279E+03    0.72800E-03   -0.58983E-04  2064   0.509E-02    0.109E+00
DAV:  50    -0.503327785090E+03    0.42188E-04   -0.81516E-05  2688   0.132E-02    0.109E+00
DAV:  51    -0.503327798669E+03   -0.13579E-04   -0.81900E-06  2592   0.369E-03    0.109E+00
DAV:  52    -0.503326668522E+03    0.11301E-02   -0.98305E-04  2256   0.535E-02    0.104E+00
DAV:  53    -0.503326614429E+03    0.54093E-04   -0.41603E-04  2064   0.326E-02    0.103E+00
DAV:  54    -0.503327114108E+03   -0.49968E-03   -0.11937E-04  2064   0.206E-02    0.105E+00
DAV:  55    -0.503327080472E+03    0.33636E-04   -0.11429E-05  2016   0.552E-03    0.105E+00
DAV:  56    -0.503326923148E+03    0.15732E-03   -0.22638E-05  2304   0.838E-03    0.104E+00
DAV:  57    -0.503330017718E+03   -0.30946E-02   -0.11232E-02  2256   0.177E-01    0.126E+00
DAV:  58    -0.503325651272E+03    0.43664E-02   -0.12833E-02  2304   0.198E-01    0.104E+00
DAV:  59    -0.503326204685E+03   -0.55341E-03   -0.22990E-03  2064   0.745E-02    0.103E+00
DAV:  60    -0.503327140538E+03   -0.93585E-03   -0.50635E-04  2112   0.466E-02    0.102E+00
DAV:  61    -0.503327437656E+03   -0.29712E-03   -0.65369E-04  2160   0.436E-02    0.100E+00
DAV:  62    -0.503328052610E+03   -0.61495E-03   -0.87365E-04  2304   0.496E-02    0.103E+00
DAV:  63    -0.503328181386E+03   -0.12878E-03   -0.32478E-04  2160   0.296E-02    0.103E+00
DAV:  64    -0.503328548656E+03   -0.36727E-03   -0.36077E-04  2304   0.328E-02    0.104E+00
DAV:  65    -0.503328737383E+03   -0.18873E-03   -0.29728E-04  2304   0.288E-02    0.103E+00
DAV:  66    -0.503328681681E+03    0.55702E-04   -0.51349E-05  2160   0.124E-02    0.103E+00
DAV:  67    -0.503329633731E+03   -0.95205E-03   -0.20494E-03  2256   0.775E-02    0.108E+00
DAV:  68    -0.503328937831E+03    0.69590E-03   -0.32697E-04  2016   0.329E-02    0.104E+00
DAV:  69    -0.503329015610E+03   -0.77779E-04   -0.19802E-05  2112   0.775E-03    0.104E+00
DAV:  70    -0.503328980613E+03    0.34997E-04   -0.74505E-06  2544   0.436E-03    0.102E+00
DAV:  71    -0.503328908008E+03    0.72605E-04   -0.17086E-05  2112   0.771E-03    0.103E+00
DAV:  72    -0.503329084933E+03   -0.17692E-03   -0.45101E-05  2208   0.105E-02    0.109E+00
DAV:  73    -0.503328621546E+03    0.46339E-03   -0.12738E-04  2304   0.212E-02    0.109E+00
DAV:  74    -0.503329571486E+03   -0.94994E-03   -0.10980E-03  2256   0.598E-02    0.111E+00
DAV:  75    -0.503330147587E+03   -0.57610E-03   -0.15065E-03  2304   0.640E-02    0.113E+00
DAV:  76    -0.503330322019E+03   -0.17443E-03   -0.50603E-04  2352   0.375E-02    0.114E+00
DAV:  77    -0.503332882784E+03   -0.25608E-02   -0.27869E-02  2304   0.299E-01    0.959E-01
DAV:  78    -0.503332693223E+03    0.18956E-03   -0.33795E-03  1872   0.100E-01    0.904E-01
DAV:  79    -0.503330609426E+03    0.20838E-02   -0.48126E-03  2208   0.115E-01    0.752E-01
DAV:  80    -0.503331316308E+03   -0.70688E-03   -0.73146E-04  1920   0.442E-02    0.734E-01
DAV:  81    -0.503331008331E+03    0.30798E-03   -0.36846E-04  2352   0.299E-02    0.649E-01
DAV:  82    -0.503328172260E+03    0.28361E-02   -0.79131E-03  2256   0.152E-01    0.546E-01
DAV:  83    -0.503327833715E+03    0.33854E-03   -0.38392E-03  2112   0.996E-02    0.491E-01
DAV:  84    -0.503327442850E+03    0.39087E-03   -0.16926E-03  2352   0.687E-02    0.451E-01
DAV:  85    -0.503325717113E+03    0.17257E-02   -0.58651E-03  2304   0.125E-01    0.381E-01
DAV:  86    -0.503323371465E+03    0.23456E-02   -0.13797E-02  2304   0.196E-01    0.463E-01
DAV:  87    -0.503315485997E+03    0.78855E-02   -0.55978E-02  2304   0.400E-01    0.109E+00
DAV:  88    -0.503322435242E+03   -0.69492E-02   -0.16418E-02  2160   0.232E-01    0.722E-01
DAV:  89    -0.503323571559E+03   -0.11363E-02   -0.46487E-03  2160   0.102E-01    0.625E-01
DAV:  90    -0.503324278589E+03   -0.70703E-03   -0.14728E-03  2352   0.619E-02
 -----------------------------------------------------------------------------
|                                                                             |
|           W    W    AA    RRRRR   N    N  II  N    N   GGGG   !!!           |
|           W    W   A  A   R    R  NN   N  II  NN   N  G    G  !!!           |
|           W    W  A    A  R    R  N N  N  II  N N  N  G       !!!           |
|           W WW W  AAAAAA  RRRRR   N  N N  II  N  N N  G  GGG   !            |
|           WW  WW  A    A  R   R   N   NN  II  N   NN  G    G                |
|           W    W  A    A  R    R  N    N  II  N    N   GGGG   !!!           |
|                                                                             |
|     The electronic self-consistency was not achieved in the given           |
|     number of steps (NELM). The forces and other quantities evaluated       |
|     might not be reliable so examine the results carefully. If you find     |
|     spurious results, we suggest increasing NELM, if you were close to      |
|     convergence or switching to a different ALGO or adjusting the           |
|     density mixing parameters otherwise.                                    |
|                                                                             |
 -----------------------------------------------------------------------------

  17 F= -.50332428E+03 E0= -.50331443E+03  d E =-.255758E+00  mag=    11.7636
 curvature:  -1.89 expect dE=-0.173E+01 dE for cont linesearch -0.961E-02
 trial: gam= 1.14148 g(F)=  0.917E+00 g(S)=  0.000E+00 ort = 0.148E+00 (trialstep = 0.200E+00)
 search vector abs. value=  0.686E+01
 bond charge predicted
       N       E                     dE             d eps       ncg     rms          rms(c)
DAV:   1    -0.503443659148E+03   -0.12009E+00   -0.70843E+01  1536   0.131E+01    0.721E+00
DAV:   2    -0.503448965494E+03   -0.53063E-02   -0.53689E+00  2208   0.379E+00    0.982E+00
DAV:   3    -0.503274085921E+03    0.17488E+00   -0.26901E+00  2400   0.218E+00    0.518E+00
DAV:   4    -0.503153015873E+03    0.12107E+00   -0.49066E-01  2256   0.105E+00    0.313E+00
DAV:   5    -0.503117091149E+03    0.35925E-01   -0.22369E-01  2352   0.775E-01    0.236E+00
DAV:   6    -0.503212912384E+03   -0.95821E-01   -0.26350E-01  2208   0.728E-01    0.148E+00
DAV:   7    -0.503246958658E+03   -0.34046E-01   -0.14057E-01  2304   0.512E-01    0.162E+00
DAV:   8    -0.503271901110E+03   -0.24942E-01   -0.17381E-02  2352   0.218E-01    0.136E+00
DAV:   9    -0.503349023259E+03   -0.77122E-01   -0.19441E-02  2304   0.235E-01    0.102E+00
DAV:  10    -0.503396564956E+03   -0.47542E-01   -0.19622E-02  2400   0.207E-01    0.841E-01
DAV:  11    -0.503491205302E+03   -0.94640E-01   -0.14950E-02  2160   0.174E-01    0.489E-01
DAV:  12    -0.503528343540E+03   -0.37138E-01   -0.55294E-03  2256   0.117E-01    0.352E-01
DAV:  13    -0.503569639139E+03   -0.41296E-01   -0.33500E-03  2304   0.762E-02    0.212E-01
DAV:  14    -0.503594152941E+03   -0.24514E-01   -0.15891E-03  2256   0.545E-02    0.211E-01
DAV:  15    -0.503623121800E+03   -0.28969E-01   -0.12960E-03  2016   0.459E-02    0.160E-01
DAV:  16    -0.503656893118E+03   -0.33771E-01   -0.18383E-03  2112   0.485E-02    0.132E-01
DAV:  17    -0.503683589608E+03   -0.26696E-01   -0.17911E-03  1872   0.448E-02    0.985E-02
DAV:  18    -0.503697804673E+03   -0.14215E-01   -0.71998E-04  1968   0.315E-02    0.581E-02
DAV:  19    -0.503705852891E+03   -0.80482E-02   -0.33720E-04  1968   0.210E-02    0.437E-02
DAV:  20    -0.503710692785E+03   -0.48399E-02   -0.21503E-04  2064   0.147E-02    0.308E-02
DAV:  21    -0.503712549934E+03   -0.18571E-02   -0.11414E-04  2016   0.117E-02    0.154E-02
DAV:  22    -0.503713206482E+03   -0.65655E-03   -0.39802E-05  2208   0.696E-03    0.844E-03
DAV:  23    -0.503713421420E+03   -0.21494E-03   -0.10285E-05  2064   0.395E-03    0.584E-03
DAV:  24    -0.503713516176E+03   -0.94757E-04   -0.44063E-06  1632   0.287E-03    0.462E-03
DAV:  25    -0.503713566603E+03   -0.50427E-04   -0.23491E-06  1632   0.210E-03    0.251E-03
DAV:  26    -0.503713584455E+03   -0.17851E-04   -0.50846E-07  1152   0.142E-03    0.194E-03
DAV:  27    -0.503713593019E+03   -0.85647E-05   -0.35986E-07  1152   0.117E-03    0.189E-03
DAV:  28    -0.503713603767E+03   -0.10747E-04   -0.37196E-07  1104   0.117E-03    0.151E-03
DAV:  29    -0.503713615391E+03   -0.11624E-04   -0.81980E-07  1344   0.125E-03    0.103E-03
DAV:  30    -0.503713623010E+03   -0.76192E-05   -0.35596E-07  1152   0.104E-03    0.841E-04
DAV:  31    -0.503713627267E+03   -0.42563E-05   -0.23271E-07  1152   0.951E-04    0.746E-04
DAV:  32    -0.503713629244E+03   -0.19775E-05   -0.13799E-07  1104   0.861E-04    0.666E-04
DAV:  33    -0.503713631116E+03   -0.18719E-05   -0.12374E-07  1104   0.753E-04    0.530E-04
DAV:  34    -0.503713632867E+03   -0.17513E-05   -0.12437E-07  1104   0.749E-04    0.522E-04
DAV:  35    -0.503713633772E+03   -0.90431E-06   -0.98247E-08  1056   0.701E-04
  18 F= -.50371363E+03 E0= -.50371335E+03  d E =-.389355E+00  mag=     9.9999
 ZBRENT: can't locate minimum, use default step
 trial-energy change:   -0.389355  1 .order   -0.275330   -0.216924   -0.333736
 step:   0.7991(harm=  0.7991)  dis= 0.16445  next Energy=  -505.126471 (dE=-0.180E+01)
 bond charge predicted
       N       E                     dE             d eps       ncg     rms          rms(c)
DAV:   1    -0.502697688142E+03    0.10159E+01   -0.62757E+02  1536   0.392E+01    0.686E+00
DAV:   2    -0.504664474862E+03   -0.19668E+01   -0.21439E+01  1872   0.807E+00    0.746E+00
DAV:   3    -0.504578650409E+03    0.85824E-01   -0.30514E+00  2640   0.279E+00    0.506E+00
DAV:   4    -0.504541289682E+03    0.37361E-01   -0.71325E-01  2688   0.123E+00    0.380E+00
DAV:   5    -0.504530992133E+03    0.10298E-01   -0.20038E-01  2400   0.821E-01    0.254E+00
DAV:   6    -0.504514763490E+03    0.16229E-01   -0.18055E-01  2352   0.699E-01    0.170E+00
DAV:   7    -0.504517654418E+03   -0.28909E-02   -0.10056E-01  2544   0.509E-01    0.863E-01
DAV:   8    -0.504518076561E+03   -0.42214E-03   -0.37244E-02  2736   0.299E-01    0.465E-01
DAV:   9    -0.504522022584E+03   -0.39460E-02   -0.66611E-03  2448   0.154E-01    0.305E-01
DAV:  10    -0.504525581980E+03   -0.35594E-02   -0.38464E-03  2400   0.108E-01    0.169E-01
DAV:  11    -0.504527764046E+03   -0.21821E-02   -0.16306E-03  2496   0.687E-02    0.149E-01
DAV:  12    -0.504528974592E+03   -0.12105E-02   -0.85236E-04  2448   0.463E-02    0.998E-02
DAV:  13    -0.504529691540E+03   -0.71695E-03   -0.28396E-04  2400   0.299E-02    0.880E-02
DAV:  14    -0.504530219157E+03   -0.52762E-03   -0.93689E-05  2400   0.163E-02    0.597E-02
DAV:  15    -0.504530737988E+03   -0.51883E-03   -0.50521E-05  2400   0.107E-02    0.318E-02
DAV:  16    -0.504531105911E+03   -0.36792E-03   -0.13959E-05  2112   0.670E-03    0.201E-02
DAV:  17    -0.504531467754E+03   -0.36184E-03   -0.12575E-05  2160   0.543E-03    0.116E-02
DAV:  18    -0.504531765017E+03   -0.29726E-03   -0.67553E-06  1872   0.370E-03    0.962E-03
DAV:  19    -0.504531934943E+03   -0.16993E-03   -0.32771E-06  1728   0.246E-03    0.480E-03
DAV:  20    -0.504532016385E+03   -0.81442E-04   -0.97824E-07  1344   0.160E-03    0.411E-03
DAV:  21    -0.504532157680E+03   -0.14129E-03   -0.22730E-06  1536   0.180E-03    0.401E-03
DAV:  22    -0.504532366375E+03   -0.20869E-03   -0.55775E-06  1632   0.224E-03    0.266E-03
DAV:  23    -0.504532457827E+03   -0.91453E-04   -0.23164E-06  1632   0.151E-03    0.195E-03
DAV:  24    -0.504532483190E+03   -0.25363E-04   -0.34671E-07  1200   0.863E-04    0.255E-03
DAV:  25    -0.504532492574E+03   -0.93845E-05   -0.15752E-07  1152   0.664E-04    0.168E-03
DAV:  26    -0.504532513820E+03   -0.21246E-04   -0.49582E-07  1248   0.757E-04    0.844E-04
DAV:  27    -0.504532526817E+03   -0.12997E-04   -0.45557E-07  1344   0.732E-04    0.780E-04
DAV:  28    -0.504532530024E+03   -0.32068E-05   -0.10809E-07  1104   0.516E-04    0.580E-04
DAV:  29    -0.504532531237E+03   -0.12131E-05   -0.72522E-08  1104   0.470E-04    0.525E-04
DAV:  30    -0.504532531896E+03   -0.65861E-06   -0.41871E-08  1056   0.398E-04
  19 F= -.50453253E+03 E0= -.50453235E+03  d E =-.120825E+01  mag=    10.0000
 curvature:  -3.76 expect dE=-0.142E+02 dE for cont linesearch -0.572E+00
 ZBRENT: increasing intervall
 opt :   1.9977  next Energy=  -504.982404 (dE=-0.166E+01)
 bond charge predicted
       N       E                     dE             d eps       ncg     rms          rms(c)
DAV:   1    -0.493490953740E+03    0.11042E+02   -0.24518E+03  1536   0.769E+01    0.210E+01
DAV:   2    -0.514067665924E+03   -0.20577E+02   -0.28918E+02  2208   0.206E+01    0.289E+01
DAV:   3    -0.506492265287E+03    0.75754E+01   -0.53692E+01  2592   0.933E+00    0.204E+01
DAV:   4    -0.504151038131E+03    0.23412E+01   -0.13033E+01  2400   0.461E+00    0.129E+01
DAV:   5    -0.504073976940E+03    0.77061E-01   -0.63626E+00  2400   0.326E+00    0.104E+01
DAV:   6    -0.504056791949E+03    0.17185E-01   -0.43761E+00  2400   0.202E+00    0.713E+00
DAV:   7    -0.504079940665E+03   -0.23149E-01   -0.19826E+00  2496   0.144E+00    0.631E+00
DAV:   8    -0.504224619331E+03   -0.14468E+00   -0.23749E+00  2496   0.160E+00    0.531E+00
DAV:   9    -0.504109350248E+03    0.11527E+00   -0.10201E+00  2256   0.131E+00    0.551E+00
DAV:  10    -0.504146365667E+03   -0.37015E-01   -0.22136E-01  2448   0.752E-01    0.484E+00
DAV:  11    -0.504190826546E+03   -0.44461E-01   -0.16327E-01  2448   0.697E-01    0.380E+00
DAV:  12    -0.504215649567E+03   -0.24823E-01   -0.56919E-02  2352   0.444E-01    0.311E+00
DAV:  13    -0.504225601834E+03   -0.99523E-02   -0.22336E-02  2496   0.274E-01    0.307E+00
DAV:  14    -0.504243539815E+03   -0.17938E-01   -0.35973E-02  2304   0.379E-01    0.218E+00
DAV:  15    -0.504233588747E+03    0.99511E-02   -0.82718E-02  2448   0.388E-01    0.102E+00
DAV:  16    -0.504237773897E+03   -0.41851E-02   -0.23235E-02  2208   0.192E-01    0.111E+00
DAV:  17    -0.504241706085E+03   -0.39322E-02   -0.98067E-03  2400   0.145E-01    0.762E-01
DAV:  18    -0.504245257292E+03   -0.35512E-02   -0.11074E-02  2352   0.148E-01    0.559E-01
DAV:  19    -0.504246669096E+03   -0.14118E-02   -0.10634E-02  2256   0.144E-01    0.390E-01
DAV:  20    -0.504248544648E+03   -0.18756E-02   -0.51718E-03  2352   0.110E-01    0.227E-01
DAV:  21    -0.504250235635E+03   -0.16910E-02   -0.18750E-03  2352   0.739E-02    0.125E-01
DAV:  22    -0.504252457788E+03   -0.22222E-02   -0.68411E-04  2304   0.431E-02    0.153E-01
DAV:  23    -0.504253594025E+03   -0.11362E-02   -0.26489E-04  2448   0.314E-02    0.965E-02
DAV:  24    -0.504254929603E+03   -0.13356E-02   -0.19799E-04  2304   0.227E-02    0.446E-02
DAV:  25    -0.504256149593E+03   -0.12200E-02   -0.10591E-04  2304   0.140E-02    0.280E-02
DAV:  26    -0.504257397615E+03   -0.12480E-02   -0.66750E-05  2160   0.114E-02    0.218E-02
DAV:  27    -0.504258428807E+03   -0.10312E-02   -0.30296E-05  2352   0.807E-03    0.176E-02
DAV:  28    -0.504259105051E+03   -0.67624E-03   -0.14317E-05  2352   0.560E-03    0.209E-02
DAV:  29    -0.504259602363E+03   -0.49731E-03   -0.10640E-05  2112   0.466E-03    0.106E-02
DAV:  30    -0.504259937703E+03   -0.33534E-03   -0.51008E-06  1824   0.321E-03    0.102E-02
DAV:  31    -0.504260384311E+03   -0.44661E-03   -0.10770E-05  1728   0.336E-03    0.642E-03
DAV:  32    -0.504260642864E+03   -0.25855E-03   -0.64482E-06  1776   0.269E-03    0.645E-03
DAV:  33    -0.504260741873E+03   -0.99009E-04   -0.21384E-06  1680   0.180E-03    0.403E-03
DAV:  34    -0.504260772156E+03   -0.30283E-04   -0.61141E-07  1344   0.124E-03    0.197E-03
DAV:  35    -0.504260783314E+03   -0.11158E-04   -0.22350E-07  1104   0.938E-04    0.137E-03
DAV:  36    -0.504260790877E+03   -0.75628E-05   -0.40246E-07  1296   0.884E-04    0.108E-03
DAV:  37    -0.504260792259E+03   -0.13820E-05   -0.10577E-07  1056   0.718E-04    0.920E-04
DAV:  38    -0.504260792577E+03   -0.31768E-06   -0.58401E-08  1056   0.586E-04
  20 F= -.50426079E+03 E0= -.50424835E+03  d E =-.936514E+00  mag=    10.0001
 curvature:  -2.95 expect dE=-0.279E+02 dE for cont linesearch -0.249E+01
 ZBRENT: bracketing found
 ZBRENT: interpolating
 opt :   1.1565  next Energy=  -504.715341 (dE=-0.139E+01)
 bond charge predicted
       N       E                     dE             d eps       ncg     rms          rms(c)
DAV:   1    -0.500546744484E+03    0.37140E+01   -0.12516E+03  1536   0.537E+01    0.119E+01
DAV:   2    -0.504997968541E+03   -0.44512E+01   -0.54430E+01  1968   0.123E+01    0.125E+01
DAV:   3    -0.504910096193E+03    0.87872E-01   -0.11121E+01  2448   0.499E+00    0.105E+01
DAV:   4    -0.504763486491E+03    0.14661E+00   -0.24710E+00  2592   0.222E+00    0.577E+00
DAV:   5    -0.504789977139E+03   -0.26491E-01   -0.60440E-01  2496   0.133E+00    0.420E+00
DAV:   6    -0.504791466110E+03   -0.14890E-02   -0.38848E-01  2304   0.102E+00    0.269E+00
DAV:   7    -0.504810394885E+03   -0.18929E-01   -0.29032E-01  2352   0.875E-01    0.254E+00
DAV:   8    -0.504805484394E+03    0.49105E-02   -0.28711E-01  2784   0.738E-01    0.150E+00
DAV:   9    -0.504795741785E+03    0.97426E-02   -0.84014E-02  2592   0.455E-01    0.752E-01
DAV:  10    -0.504798524038E+03   -0.27823E-02   -0.19934E-02  2400   0.259E-01    0.388E-01
DAV:  11    -0.504801413428E+03   -0.28894E-02   -0.92837E-03  2640   0.146E-01    0.376E-01
DAV:  12    -0.504802002338E+03   -0.58891E-03   -0.40690E-03  2544   0.972E-02    0.202E-01
DAV:  13    -0.504802594503E+03   -0.59216E-03   -0.17183E-03  2544   0.653E-02    0.132E-01
DAV:  14    -0.504802942413E+03   -0.34791E-03   -0.86793E-04  2496   0.451E-02    0.119E-01
DAV:  15    -0.504803237408E+03   -0.29500E-03   -0.36726E-04  2448   0.318E-02    0.487E-02
DAV:  16    -0.504803484539E+03   -0.24713E-03   -0.14372E-04  2400   0.232E-02    0.356E-02
DAV:  17    -0.504803647671E+03   -0.16313E-03   -0.38941E-05  2592   0.116E-02    0.217E-02
DAV:  18    -0.504803791591E+03   -0.14392E-03   -0.19869E-05  2304   0.777E-03    0.133E-02
DAV:  19    -0.504803953780E+03   -0.16219E-03   -0.11106E-05  2112   0.518E-03    0.905E-03
DAV:  20    -0.504804069350E+03   -0.11557E-03   -0.50219E-06  2208   0.343E-03    0.819E-03
DAV:  21    -0.504804155658E+03   -0.86309E-04   -0.26740E-06  1728   0.245E-03    0.765E-03
DAV:  22    -0.504804238454E+03   -0.82795E-04   -0.26656E-06  1680   0.238E-03    0.428E-03
DAV:  23    -0.504804313260E+03   -0.74806E-04   -0.23394E-06  1632   0.196E-03    0.384E-03
DAV:  24    -0.504804373967E+03   -0.60708E-04   -0.19264E-06  1584   0.170E-03    0.302E-03
DAV:  25    -0.504804415603E+03   -0.41635E-04   -0.11499E-06  1392   0.138E-03    0.253E-03
DAV:  26    -0.504804449574E+03   -0.33971E-04   -0.10562E-06  1488   0.125E-03    0.175E-03
DAV:  27    -0.504804470116E+03   -0.20542E-04   -0.55581E-07  1200   0.102E-03    0.148E-03
DAV:  28    -0.504804481990E+03   -0.11874E-04   -0.30256E-07  1200   0.862E-04    0.126E-03
DAV:  29    -0.504804488275E+03   -0.62857E-05   -0.17124E-07  1104   0.745E-04    0.814E-04
DAV:  30    -0.504804494038E+03   -0.57629E-05   -0.21088E-07  1152   0.663E-04    0.630E-04
DAV:  31    -0.504804498587E+03   -0.45486E-05   -0.10685E-07  1056   0.569E-04    0.632E-04
DAV:  32    -0.504804500754E+03   -0.21666E-05   -0.68840E-08  1056   0.536E-04    0.496E-04
DAV:  33    -0.504804502380E+03   -0.16269E-05   -0.60009E-08  1056   0.448E-04    0.470E-04
[...]
DAV:  20    -0.511631466425E+03   -0.19244E-04   -0.31936E-07  1248   0.767E-04    0.883E-04
DAV:  21    -0.511631481054E+03   -0.14629E-04   -0.22467E-07  1104   0.703E-04    0.666E-04
DAV:  22    -0.511631489856E+03   -0.88021E-05   -0.15643E-07  1056   0.675E-04    0.601E-04
DAV:  23    -0.511631495995E+03   -0.61393E-05   -0.18236E-07  1104   0.665E-04    0.466E-04
DAV:  24    -0.511631501812E+03   -0.58169E-05   -0.16716E-07  1104   0.605E-04    0.444E-04
DAV:  25    -0.511631504047E+03   -0.22343E-05   -0.94300E-08  1056   0.579E-04    0.387E-04
DAV:  26    -0.511631505677E+03   -0.16301E-05   -0.92927E-08  1056   0.495E-04    0.382E-04
DAV:  27    -0.511631506032E+03   -0.35510E-06   -0.50430E-08  1056   0.495E-04
  89 F= -.51163151E+03 E0= -.51163144E+03  d E =-.624624E-01  mag=     8.0000
 curvature:  -1.45 expect dE=-0.282E+00 dE for cont linesearch -0.533E-05
 trial: gam= 0.69595 g(F)=  0.195E+00 g(S)=  0.000E+00 ort =-0.237E-02 (trialstep = 0.278E+00)
 search vector abs. value=  0.928E+00
 bond charge predicted
       N       E                     dE             d eps       ncg     rms          rms(c)
DAV:   1    -0.511617536330E+03    0.13969E-01   -0.17982E+01  1536   0.629E+00    0.152E+00
DAV:   2    -0.511663216068E+03   -0.45680E-01   -0.48029E-01  2016   0.129E+00    0.110E+00
DAV:   3    -0.511666365605E+03   -0.31495E-02   -0.37689E-02  2544   0.388E-01    0.586E-01
DAV:   4    -0.511666918736E+03   -0.55313E-03   -0.11021E-02  2352   0.207E-01    0.461E-01
DAV:   5    -0.511666241059E+03    0.67768E-03   -0.39789E-03  2448   0.135E-01    0.228E-01
DAV:   6    -0.511666465773E+03   -0.22471E-03   -0.21569E-03  2352   0.906E-02    0.163E-01
DAV:   7    -0.511666625784E+03   -0.16001E-03   -0.83993E-04  2496   0.509E-02    0.581E-02
DAV:   8    -0.511666779211E+03   -0.15343E-03   -0.23214E-04  2256   0.294E-02    0.387E-02
DAV:   9    -0.511666892196E+03   -0.11298E-03   -0.12191E-04  2640   0.167E-02    0.358E-02
DAV:  10    -0.511666969809E+03   -0.77613E-04   -0.13014E-05  2160   0.694E-03    0.181E-02
DAV:  11    -0.511667045439E+03   -0.75630E-04   -0.10733E-05  2592   0.651E-03    0.138E-02
DAV:  12    -0.511667106908E+03   -0.61469E-04   -0.37109E-06  2016   0.416E-03    0.628E-03
DAV:  13    -0.511667153309E+03   -0.46400E-04   -0.19183E-06  1968   0.282E-03    0.768E-03
DAV:  14    -0.511667179070E+03   -0.25762E-04   -0.46262E-07  1200   0.164E-03    0.370E-03
DAV:  15    -0.511667205552E+03   -0.26481E-04   -0.39280E-07  1152   0.108E-03    0.225E-03
DAV:  16    -0.511667237809E+03   -0.32257E-04   -0.37483E-07  1152   0.102E-03    0.155E-03
DAV:  17    -0.511667264215E+03   -0.26406E-04   -0.22026E-07  1200   0.749E-04    0.149E-03
DAV:  18    -0.511667284045E+03   -0.19830E-04   -0.17198E-07  1056   0.734E-04    0.103E-03
DAV:  19    -0.511667302144E+03   -0.18099E-04   -0.19454E-07  1056   0.685E-04    0.916E-04
DAV:  20    -0.511667320979E+03   -0.18835E-04   -0.37764E-07  1296   0.733E-04    0.618E-04
DAV:  21    -0.511667333971E+03   -0.12992E-04   -0.13282E-07  1056   0.563E-04    0.532E-04
DAV:  22    -0.511667344238E+03   -0.10267E-04   -0.18319E-07  1200   0.576E-04    0.508E-04
DAV:  23    -0.511667351121E+03   -0.68829E-05   -0.11193E-07  1056   0.520E-04    0.449E-04
DAV:  24    -0.511667354999E+03   -0.38782E-05   -0.10754E-07  1056   0.517E-04    0.428E-04
DAV:  25    -0.511667357033E+03   -0.20334E-05   -0.84395E-08  1056   0.485E-04    0.384E-04
DAV:  26    -0.511667357756E+03   -0.72378E-06   -0.55447E-08  1056   0.446E-04
  90 F= -.51166736E+03 E0= -.51166727E+03  d E =-.358517E-01  mag=     8.0000
 trial-energy change:   -0.035852  1 .order   -0.035738   -0.053754   -0.017722
 step:   0.4111(harm=  0.4149)  dis= 0.02792  next Energy=  -511.671609 (dE=-0.401E-01)
 bond charge predicted
       N       E                     dE             d eps       ncg     rms          rms(c)
DAV:   1    -0.511660261746E+03    0.70953E-02   -0.41124E+00  1536   0.301E+00    0.728E-01
DAV:   2    -0.511670286869E+03   -0.10025E-01   -0.10907E-01  1968   0.620E-01    0.523E-01
DAV:   3    -0.511671318255E+03   -0.10314E-02   -0.88995E-03  2640   0.191E-01    0.281E-01
DAV:   4    -0.511671424523E+03   -0.10627E-03   -0.25442E-03  2448   0.983E-02    0.223E-01
DAV:   5    -0.511671257511E+03    0.16701E-03   -0.91415E-04  2400   0.656E-02    0.110E-01
DAV:   6    -0.511671301912E+03   -0.44401E-04   -0.50737E-04  2400   0.432E-02    0.777E-02
DAV:   7    -0.511671353024E+03   -0.51112E-04   -0.19172E-04  2544   0.233E-02    0.282E-02
DAV:   8    -0.511671405242E+03   -0.52218E-04   -0.51874E-05  2256   0.138E-02    0.185E-02
DAV:   9    -0.511671448495E+03   -0.43253E-04   -0.22889E-05  2352   0.751E-03    0.172E-02
DAV:  10    -0.511671479617E+03   -0.31122E-04   -0.35224E-06  1872   0.372E-03    0.838E-03
DAV:  11    -0.511671505047E+03   -0.25430E-04   -0.25867E-06  2016   0.339E-03    0.629E-03
DAV:  12    -0.511671527053E+03   -0.22006E-04   -0.75278E-07  1344   0.206E-03    0.268E-03
DAV:  13    -0.511671544607E+03   -0.17554E-04   -0.43569E-07  1104   0.153E-03    0.391E-03
DAV:  14    -0.511671554133E+03   -0.95257E-05   -0.21399E-07  1056   0.115E-03    0.195E-03
DAV:  15    -0.511671564161E+03   -0.10028E-04   -0.17945E-07  1056   0.875E-04    0.124E-03
DAV:  16    -0.511671574011E+03   -0.98507E-05   -0.13980E-07  1056   0.852E-04    0.836E-04
DAV:  17    -0.511671584618E+03   -0.10607E-04   -0.15228E-07  1056   0.761E-04    0.740E-04
DAV:  18    -0.511671591443E+03   -0.68247E-05   -0.12717E-07  1056   0.774E-04    0.668E-04
DAV:  19    -0.511671598665E+03   -0.72222E-05   -0.13618E-07  1056   0.688E-04    0.624E-04
DAV:  20    -0.511671604193E+03   -0.55277E-05   -0.12771E-07  1056   0.719E-04    0.456E-04
DAV:  21    -0.511671608552E+03   -0.43594E-05   -0.11632E-07  1056   0.633E-04    0.445E-04
DAV:  22    -0.511671611888E+03   -0.33357E-05   -0.10777E-07  1056   0.646E-04    0.404E-04
DAV:  23    -0.511671614778E+03   -0.28903E-05   -0.10928E-07  1056   0.584E-04    0.403E-04
DAV:  24    -0.511671616156E+03   -0.13779E-05   -0.86556E-08  1056   0.598E-04    0.370E-04
DAV:  25    -0.511671616822E+03   -0.66539E-06   -0.67666E-08  1056   0.504E-04
  91 F= -.51167162E+03 E0= -.51167152E+03  d E =-.401108E-01  mag=     8.0000
 curvature:  -1.00 expect dE=-0.171E+00 dE for cont linesearch -0.280E-08
 trial: gam= 0.89786 g(F)=  0.172E+00 g(S)=  0.000E+00 ort = 0.511E-04 (trialstep = 0.305E+00)
 search vector abs. value=  0.920E+00
 bond charge predicted
       N       E                     dE             d eps       ncg     rms          rms(c)
DAV:   1    -0.511652319606E+03    0.19297E-01   -0.21269E+01  1536   0.705E+00    0.189E+00
DAV:   2    -0.511706179231E+03   -0.53860E-01   -0.57530E-01  1968   0.146E+00    0.138E+00
DAV:   3    -0.511711003221E+03   -0.48240E-02   -0.48529E-02  2448   0.437E-01    0.935E-01
DAV:   4    -0.511712292401E+03   -0.12892E-02   -0.13995E-02  2208   0.217E-01    0.564E-01
DAV:   5    -0.511711731356E+03    0.56105E-03   -0.63072E-03  2304   0.161E-01    0.227E-01
DAV:   6    -0.511712350374E+03   -0.61902E-03   -0.23280E-03  2448   0.995E-02    0.123E-01
DAV:   7    -0.511712371802E+03   -0.21427E-04   -0.87306E-04  2448   0.629E-02    0.703E-02
DAV:   8    -0.511712448416E+03   -0.76615E-04   -0.41489E-04  2400   0.416E-02    0.432E-02
DAV:   9    -0.511712540603E+03   -0.92186E-04   -0.39488E-04  2688   0.229E-02    0.318E-02
DAV:  10    -0.511712584003E+03   -0.43401E-04   -0.32824E-05  2256   0.107E-02    0.188E-02
DAV:  11    -0.511712619145E+03   -0.35141E-04   -0.15225E-05  2880   0.833E-03    0.151E-02
DAV:  12    -0.511712630670E+03   -0.11525E-04   -0.72118E-06  2496   0.618E-03    0.801E-03
DAV:  13    -0.511712639670E+03   -0.90006E-05   -0.11135E-06  1776   0.261E-03    0.582E-03
DAV:  14    -0.511712649719E+03   -0.10049E-04   -0.43305E-07  1056   0.153E-03    0.461E-03
DAV:  15    -0.511712663183E+03   -0.13464E-04   -0.32673E-07  1104   0.141E-03    0.286E-03
DAV:  16    -0.511712672632E+03   -0.94495E-05   -0.19407E-07  1056   0.105E-03    0.153E-03
DAV:  17    -0.511712677482E+03   -0.48495E-05   -0.14818E-07  1056   0.911E-04    0.119E-03
DAV:  18    -0.511712681708E+03   -0.42258E-05   -0.97415E-08  1056   0.776E-04    0.743E-04
DAV:  19    -0.511712685463E+03   -0.37547E-05   -0.79916E-08  1056   0.679E-04    0.626E-04
DAV:  20    -0.511712687702E+03   -0.22399E-05   -0.59900E-08  1056   0.604E-04    0.458E-04
DAV:  21    -0.511712691693E+03   -0.39910E-05   -0.72235E-08  1056   0.562E-04    0.477E-04
DAV:  22    -0.511712693918E+03   -0.22248E-05   -0.52840E-08  1056   0.557E-04    0.410E-04
DAV:  23    -0.511712696587E+03   -0.26689E-05   -0.62441E-08  1056   0.498E-04    0.405E-04
DAV:  24    -0.511712698400E+03   -0.18129E-05   -0.49916E-08  1056   0.512E-04    0.393E-04
DAV:  25    -0.511712699978E+03   -0.15776E-05   -0.54255E-08  1056   0.463E-04    0.371E-04
DAV:  26    -0.511712701163E+03   -0.11851E-05   -0.51004E-08  1056   0.480E-04    0.374E-04
DAV:  27    -0.511712701588E+03   -0.42516E-06   -0.39794E-08  1056   0.443E-04
  92 F= -.51171270E+03 E0= -.51171265E+03  d E =-.410848E-01  mag=     8.0000
 trial-energy change:   -0.041085  1 .order   -0.040997   -0.052469   -0.029524
 step:   0.6777(harm=  0.6968)  dis= 0.03765  next Energy=  -511.730934 (dE=-0.593E-01)
 bond charge predicted
       N       E                     dE             d eps       ncg     rms          rms(c)
DAV:   1    -0.511640130690E+03    0.72570E-01   -0.31907E+01  1536   0.862E+00    0.235E+00
DAV:   2    -0.511722246609E+03   -0.82116E-01   -0.86837E-01  1920   0.179E+00    0.170E+00
DAV:   3    -0.511728855411E+03   -0.66088E-02   -0.74537E-02  2448   0.537E-01    0.117E+00
DAV:   4    -0.511731075704E+03   -0.22203E-02   -0.21831E-02  2256   0.274E-01    0.689E-01
DAV:   5    -0.511729986848E+03    0.10889E-02   -0.10483E-02  2352   0.210E-01    0.288E-01
DAV:   6    -0.511730922364E+03   -0.93552E-03   -0.38900E-03  2448   0.133E-01    0.156E-01
DAV:   7    -0.511730950106E+03   -0.27742E-04   -0.16862E-03  2496   0.837E-02    0.894E-02
DAV:   8    -0.511731045435E+03   -0.95329E-04   -0.56736E-04  2400   0.488E-02    0.545E-02
DAV:   9    -0.511731150561E+03   -0.10513E-03   -0.40627E-04  2592   0.241E-02    0.374E-02
DAV:  10    -0.511731209522E+03   -0.58962E-04   -0.41128E-05  2304   0.125E-02    0.215E-02
DAV:  11    -0.511731252328E+03   -0.42805E-04   -0.21532E-05  2976   0.101E-02    0.159E-02
DAV:  12    -0.511731266145E+03   -0.13817E-04   -0.89452E-06  2592   0.704E-03    0.902E-03
DAV:  13    -0.511731277374E+03   -0.11229E-04   -0.11687E-06  1824   0.277E-03    0.676E-03
DAV:  14    -0.511731288422E+03   -0.11048E-04   -0.46816E-07  1056   0.165E-03    0.532E-03
DAV:  15    -0.511731305809E+03   -0.17387E-04   -0.44552E-07  1104   0.150E-03    0.303E-03
DAV:  16    -0.511731318267E+03   -0.12458E-04   -0.24407E-07  1056   0.124E-03    0.175E-03
DAV:  17    -0.511731324059E+03   -0.57916E-05   -0.18514E-07  1056   0.943E-04    0.126E-03
DAV:  18    -0.511731329348E+03   -0.52886E-05   -0.11875E-07  1056   0.801E-04    0.857E-04
DAV:  19    -0.511731334090E+03   -0.47419E-05   -0.87705E-08  1056   0.695E-04    0.736E-04
DAV:  20    -0.511731337233E+03   -0.31435E-05   -0.71315E-08  1056   0.612E-04    0.504E-04
DAV:  21    -0.511731342130E+03   -0.48970E-05   -0.82205E-08  1056   0.549E-04    0.560E-04
DAV:  22    -0.511731345541E+03   -0.34111E-05   -0.67030E-08  1056   0.563E-04    0.437E-04
DAV:  23    -0.511731348830E+03   -0.32892E-05   -0.74574E-08  1056   0.497E-04    0.468E-04
DAV:  24    -0.511731351012E+03   -0.21818E-05   -0.62616E-08  1056   0.519E-04    0.405E-04
DAV:  25    -0.511731352903E+03   -0.18909E-05   -0.65190E-08  1056   0.458E-04    0.405E-04
DAV:  26    -0.511731354177E+03   -0.12742E-05   -0.60896E-08  1056   0.483E-04    0.396E-04
DAV:  27    -0.511731354638E+03   -0.46052E-06   -0.45191E-08  1056   0.428E-04
  93 F= -.51173135E+03 E0= -.51173133E+03  d E =-.597378E-01  mag=     8.0000
 curvature:  -1.86 expect dE=-0.235E+00 dE for cont linesearch -0.115E-04
 trial: gam= 0.73420 g(F)=  0.127E+00 g(S)=  0.000E+00 ort = 0.239E-02 (trialstep = 0.379E+00)
 search vector abs. value=  0.626E+00
 bond charge predicted
       N       E                     dE             d eps       ncg     rms          rms(c)
DAV:   1    -0.511696945374E+03    0.34409E-01   -0.22521E+01  1536   0.718E+00    0.176E+00
DAV:   2    -0.511754293550E+03   -0.57348E-01   -0.61406E-01  2064   0.153E+00    0.148E+00
DAV:   3    -0.511758349010E+03   -0.40555E-02   -0.50950E-02  2640   0.443E-01    0.801E-01
DAV:   4    -0.511758444170E+03   -0.95160E-04   -0.14554E-02  2304   0.226E-01    0.602E-01
DAV:   5    -0.511757897292E+03    0.54688E-03   -0.78940E-03  2400   0.175E-01    0.253E-01
DAV:   6    -0.511758447949E+03   -0.55066E-03   -0.35070E-03  2448   0.115E-01    0.158E-01
DAV:   7    -0.511758417930E+03    0.30019E-04   -0.11761E-03  2544   0.640E-02    0.725E-02
DAV:   8    -0.511758444704E+03   -0.26774E-04   -0.41058E-04  2208   0.356E-02    0.443E-02
DAV:   9    -0.511758514994E+03   -0.70290E-04   -0.25103E-04  2544   0.210E-02    0.299E-02
DAV:  10    -0.511758565771E+03   -0.50778E-04   -0.34593E-05  2448   0.112E-02    0.165E-02
DAV:  11    -0.511758610586E+03   -0.44814E-04   -0.10263E-05  2496   0.662E-03    0.105E-02
DAV:  12    -0.511758645134E+03   -0.34548E-04   -0.39566E-06  1968   0.383E-03    0.772E-03
DAV:  13    -0.511758663236E+03   -0.18102E-04   -0.12165E-06  1824   0.236E-03    0.502E-03
DAV:  14    -0.511758687774E+03   -0.24538E-04   -0.11007E-06  1584   0.183E-03    0.343E-03
DAV:  15    -0.511758721125E+03   -0.33352E-04   -0.15004E-06  1776   0.171E-03    0.239E-03
DAV:  16    -0.511758742404E+03   -0.21278E-04   -0.78015E-07  1488   0.140E-03    0.211E-03
DAV:  17    -0.511758748253E+03   -0.58492E-05   -0.16815E-07  1056   0.903E-04    0.150E-03
DAV:  18    -0.511758756122E+03   -0.78688E-05   -0.23740E-07  1152   0.732E-04    0.112E-03
DAV:  19    -0.511758770225E+03   -0.14103E-04   -0.49493E-07  1488   0.888E-04    0.922E-04
DAV:  20    -0.511758784548E+03   -0.14323E-04   -0.92082E-07  1728   0.947E-04    0.814E-04
DAV:  21    -0.511758791404E+03   -0.68561E-05   -0.25064E-07  1296   0.646E-04    0.604E-04
DAV:  22    -0.511758794174E+03   -0.27695E-05   -0.98490E-08  1056   0.544E-04    0.595E-04
DAV:  23    -0.511758795800E+03   -0.16264E-05   -0.74667E-08  1056   0.482E-04    0.485E-04
DAV:  24    -0.511758798009E+03   -0.22091E-05   -0.11796E-07  1152   0.490E-04    0.453E-04
DAV:  25    -0.511758798806E+03   -0.79648E-06   -0.52687E-08  1056   0.463E-04
  94 F= -.51175880E+03 E0= -.51175879E+03  d E =-.274442E-01  mag=     8.0000
 trial-energy change:   -0.027444  1 .order   -0.027445   -0.048672   -0.006219
 step:   0.4349(harm=  0.4349)  dis= 0.01828  next Energy=  -511.759255 (dE=-0.279E-01)
 bond charge predicted
       N       E                     dE             d eps       ncg     rms          rms(c)
DAV:   1    -0.511757935365E+03    0.86264E-03   -0.48308E-01  1536   0.105E+00    0.259E-01
DAV:   2    -0.511759049172E+03   -0.11138E-02   -0.13105E-02  2064   0.224E-01    0.216E-01
DAV:   3    -0.511759214681E+03   -0.16551E-03   -0.11086E-03  2640   0.653E-02    0.117E-01
DAV:   4    -0.511759224175E+03   -0.94941E-05   -0.30856E-04  2208   0.334E-02    0.870E-02
DAV:   5    -0.511759217526E+03    0.66488E-05   -0.16474E-04  2448   0.256E-02    0.370E-02
DAV:   6    -0.511759235308E+03   -0.17782E-04   -0.73442E-05  2448   0.166E-02    0.224E-02
DAV:   7    -0.511759236884E+03   -0.15757E-05   -0.24534E-05  2496   0.947E-03    0.106E-02
DAV:   8    -0.511759238461E+03   -0.15771E-05   -0.83173E-06  1920   0.513E-03    0.624E-03
DAV:   9    -0.511759240972E+03   -0.25108E-05   -0.40320E-06  1728   0.308E-03    0.405E-03
DAV:  10    -0.511759243226E+03   -0.22544E-05   -0.77168E-07  1344   0.196E-03    0.234E-03
DAV:  11    -0.511759245480E+03   -0.22543E-05   -0.26041E-07  1056   0.125E-03    0.137E-03
DAV:  12    -0.511759247252E+03   -0.17716E-05   -0.15352E-07  1056   0.902E-04    0.115E-03
DAV:  13    -0.511759248323E+03   -0.10715E-05   -0.91528E-08  1056   0.729E-04    0.895E-04
DAV:  14    -0.511759249393E+03   -0.10696E-05   -0.77461E-08  1056   0.642E-04    0.704E-04
DAV:  15    -0.511759251111E+03   -0.17183E-05   -0.97335E-08  1152   0.622E-04    0.526E-04
DAV:  16    -0.511759252534E+03   -0.14229E-05   -0.92447E-08  1104   0.607E-04    0.488E-04
DAV:  17    -0.511759253245E+03   -0.71045E-06   -0.59300E-08  1056   0.544E-04
  95 F= -.51175925E+03 E0= -.51175925E+03  d E =-.278986E-01  mag=     8.0000
 curvature:  -1.06 expect dE=-0.888E-01 dE for cont linesearch -0.112E-08
 trial: gam= 0.67166 g(F)=  0.837E-01 g(S)=  0.000E+00 ort = 0.257E-04 (trialstep = 0.390E+00)
 search vector abs. value=  0.366E+00
 bond charge predicted
       N       E                     dE             d eps       ncg     rms          rms(c)
DAV:   1    -0.511743905407E+03    0.15347E-01   -0.14084E+01  1536   0.583E+00    0.141E+00
DAV:   2    -0.511779405506E+03   -0.35500E-01   -0.37586E-01  2064   0.123E+00    0.980E-01
DAV:   3    -0.511783558958E+03   -0.41535E-02   -0.32737E-02  2592   0.363E-01    0.724E-01
DAV:   4    -0.511784338275E+03   -0.77932E-03   -0.83109E-03  2400   0.184E-01    0.444E-01
DAV:   5    -0.511784294286E+03    0.43989E-04   -0.59449E-03  2448   0.180E-01    0.279E-01
DAV:   6    -0.511784227808E+03    0.66478E-04   -0.24470E-03  2496   0.119E-01    0.125E-01
DAV:   7    -0.511784286301E+03   -0.58493E-04   -0.76019E-04  2448   0.513E-02    0.558E-02
DAV:   8    -0.511784348210E+03   -0.61909E-04   -0.28327E-04  2544   0.292E-02    0.447E-02
DAV:   9    -0.511784403240E+03   -0.55030E-04   -0.20184E-04  2688   0.198E-02    0.302E-02
DAV:  10    -0.511784428900E+03   -0.25660E-04   -0.22768E-05  2448   0.852E-03    0.164E-02
DAV:  11    -0.511784450430E+03   -0.21530E-04   -0.63895E-06  2304   0.474E-03    0.104E-02
DAV:  12    -0.511784469839E+03   -0.19409E-04   -0.20699E-06  1872   0.363E-03    0.592E-03
DAV:  13    -0.511784481297E+03   -0.11458E-04   -0.73327E-07  1392   0.246E-03    0.389E-03
DAV:  14    -0.511784489275E+03   -0.79772E-05   -0.32994E-07  1104   0.135E-03    0.249E-03
DAV:  15    -0.511784495912E+03   -0.66372E-05   -0.19979E-07  1056   0.109E-03    0.197E-03
DAV:  16    -0.511784500923E+03   -0.50112E-05   -0.15907E-07  1104   0.865E-04    0.139E-03
DAV:  17    -0.511784509414E+03   -0.84912E-05   -0.20315E-07  1152   0.869E-04    0.117E-03
DAV:  18    -0.511784516233E+03   -0.68188E-05   -0.18273E-07  1104   0.840E-04    0.708E-04
DAV:  19    -0.511784520266E+03   -0.40326E-05   -0.13763E-07  1056   0.785E-04    0.850E-04
DAV:  20    -0.511784523300E+03   -0.30342E-05   -0.11995E-07  1104   0.695E-04    0.564E-04
DAV:  21    -0.511784525924E+03   -0.26239E-05   -0.94965E-08  1056   0.652E-04    0.599E-04
DAV:  22    -0.511784529465E+03   -0.35414E-05   -0.12831E-07  1104   0.613E-04    0.467E-04
DAV:  23    -0.511784533674E+03   -0.42089E-05   -0.22535E-07  1200   0.690E-04    0.528E-04
DAV:  24    -0.511784534928E+03   -0.12536E-05   -0.98813E-08  1056   0.634E-04    0.401E-04
DAV:  25    -0.511784535383E+03   -0.45566E-06   -0.65056E-08  1056   0.543E-04
  96 F= -.51178454E+03 E0= -.51178452E+03  d E =-.252821E-01  mag=     8.0000
 trial-energy change:   -0.025282  1 .order   -0.025297   -0.032668   -0.017926
 step:   0.8652(harm=  0.8652)  dis= 0.02825  next Energy=  -511.795450 (dE=-0.362E-01)
 bond charge predicted
       N       E                     dE             d eps       ncg     rms          rms(c)
DAV:   1    -0.511735225879E+03    0.49309E-01   -0.20835E+01  1536   0.707E+00    0.169E+00
DAV:   2    -0.511788962394E+03   -0.53737E-01   -0.56415E-01  2160   0.150E+00    0.117E+00
DAV:   3    -0.511794174706E+03   -0.52123E-02   -0.43866E-02  2592   0.416E-01    0.863E-01
