unknown system                          
           1
    11.598200    0.000000    0.000000
    -5.799100   10.044336    0.000000
     0.000000    0.000000   21.048201
   Ce   O    Ir
    18    51     2
Direct configuration=     1
   0.00000000  0.00000000  0.45993000
   0.22222000  0.11111000  0.30996000
   0.33333000  0.00000000  0.45993000
   0.55556000  0.11111000  0.30996000
   0.66667000  0.00000000  0.45993000
   0.88889000  0.11111000  0.30996000
   0.00000000  0.33333000  0.45993000
   0.22222000  0.44444000  0.30996000
   0.33333000  0.33333000  0.45993000
   0.55556000  0.44444000  0.30996000
   0.66667000  0.33333000  0.45993000
   0.88889000  0.44444000  0.30996000
   0.00000000  0.66667000  0.45993000
   0.22222000  0.77778000  0.30996000
   0.33333000  0.66667000  0.45993000
   0.55556000  0.77778000  0.30996000
   0.66667000  0.66667000  0.45993000
   0.88889000  0.77778000  0.30996000
   0.00000000  0.00000000  0.57241000
   0.11111000  0.22222000  0.27247000
   0.22222000  0.11111000  0.42244000
   0.11111000  0.22222000  0.49742000
   0.00000000  0.00000000  0.34745000
   0.33333000  0.00000000  0.57241000
   0.44444000  0.22222000  0.27247000
   0.55556000  0.11111000  0.42244000
   0.44444000  0.22222000  0.49742000
   0.33333000  0.00000000  0.34745000
   0.66667000  0.00000000  0.57241000
   0.77778000  0.22222000  0.27247000
   0.88889000  0.11111000  0.42244000
   0.77778000  0.22222000  0.49742000
   0.66667000  0.00000000  0.34745000
   0.00000000  0.33333000  0.57241000
   0.11111000  0.55556000  0.27247000
   0.22222000  0.44444000  0.42244000
   0.11111000  0.55556000  0.49742000
   0.00000000  0.33333000  0.34745000
   0.33333000  0.33333000  0.57241000
   0.44444000  0.55556000  0.27247000
   0.55556000  0.44444000  0.42244000
   0.44444000  0.55556000  0.49742000
   0.33333000  0.33333000  0.34745000
   0.66667000  0.33333000  0.57241000
   0.77778000  0.55556000  0.27247000
   0.88889000  0.44444000  0.42244000
   0.77778000  0.55556000  0.49742000
   0.66667000  0.33333000  0.34745000
   0.00000000  0.66667000  0.57241000
   0.11111000  0.88889000  0.27247000
   0.22222000  0.77778000  0.42244000
   0.11111000  0.88889000  0.49742000
   0.00000000  0.66667000  0.34745000
   0.33333000  0.66667000  0.57241000
   0.44444000  0.88889000  0.27247000
   0.55556000  0.77778000  0.42244000
   0.44444000  0.88889000  0.49742000
   0.33333000  0.66667000  0.34745000
   0.66667000  0.66667000  0.57241000
   0.77778000  0.88889000  0.27247000
   0.88889000  0.77778000  0.42244000
   0.77778000  0.88889000  0.49742000
   0.66667000  0.66667000  0.34745000
   0.41995000  0.90566000  0.63222000
   0.56244000  0.76382000  0.64172000
   0.55931000  0.77277000  0.51616000
   0.42431000  0.57633000  0.63422000
   0.55313000  0.44676000  0.64709000
   0.56544000  0.43664000  0.51651000
   0.49197000  0.83062000  0.57349000
   0.49190000  0.50494000  0.57828000
Direct configuration=     2
   0.99929271  0.00054636  0.46070849
   0.22164154  0.11063698  0.30955627
   0.33095103  0.00195410  0.46029448
   0.55585348  0.11155046  0.30952000
   0.67659448  0.00723643  0.45943992
   0.88935513  0.11149429  0.30983863
   0.99869077  0.33275195  0.46093905
   0.22114485  0.44376632  0.30939336
   0.32625834  0.32441412  0.45937786
   0.55577304  0.44400049  0.30883897
   0.66921477  0.33134101  0.46040604
   0.88901357  0.44434172  0.30984213
   0.00026846  0.66623792  0.46046008
   0.22150564  0.77774406  0.30932959
   0.32330020  0.66025043  0.45759739
   0.55586200  0.77837400  0.30866332
   0.67648482  0.67276394  0.45978983
   0.88972761  0.77823667  0.30966492
   0.99995013  0.00011019  0.57256769
   0.11141298  0.22245974  0.27250928
   0.22297978  0.11173317  0.42174214
   0.11076011  0.22213618  0.49695272
   0.00004219  0.99993536  0.34737866
   0.33357692  0.99919935  0.57380798
   0.44449338  0.22238840  0.27251595
   0.55454193  0.10959938  0.42191335
   0.44152761  0.21709128  0.49660734
   0.33335593  0.99991000  0.34780265
   0.66065368  0.99455041  0.57275901
   0.77754846  0.22206481  0.27250784
   0.88826227  0.11076254  0.42143684
   0.77785801  0.22262009  0.49699413
   0.66622710  0.99941660  0.34784659
   0.99988137  0.33324879  0.57250013
   0.11148598  0.55573931  0.27251963
   0.22435675  0.44602044  0.42200848
   0.11136395  0.55604804  0.49686583
   0.00033590  0.33351055  0.34736274
   0.33653632  0.33911401  0.57185556
   0.44458658  0.55570012  0.27254318
   0.55399299  0.44606420  0.41536303
   0.43819621  0.55228999  0.49725404
   0.33379258  0.33368151  0.34799850
   0.66731939  0.33273275  0.57313484
   0.77743087  0.55557520  0.27252219
   0.88882551  0.44485332  0.42153491
   0.78271540  0.55840772  0.49673449
   0.66614229  0.33348570  0.34752134
   0.00018917  0.66672918  0.57254482
   0.11122304  0.88887352  0.27250202
   0.22364437  0.77838121  0.42209015
   0.11162528  0.88867036  0.49754583
   0.00020122  0.66686044  0.34749227
   0.33383498  0.66766770  0.57307937
   0.44449253  0.88866180  0.27254432
   0.55326304  0.77763743  0.41509905
   0.43929532  0.89253624  0.49539642
   0.33373349  0.66678523  0.34829645
   0.65755161  0.66127641  0.57292415
   0.77729734  0.88851393  0.27251931
   0.88806896  0.77700297  0.42165469
   0.78344751  0.89247820  0.49606866
   0.66600171  0.66662560  0.34811471
   0.42443222  0.90233276  0.62711281
   0.55600039  0.76320812  0.63955673
   0.56751543  0.76739699  0.51795835
   0.42675526  0.58018744  0.63390547
   0.55030110  0.44902642  0.64440451
   0.56587713  0.43525326  0.52338886
   0.49202825  0.84571551  0.59072171
   0.50058564  0.49762886  0.58676796
Direct configuration=     3
   0.99962386  0.00029055  0.46034400
   0.22191238  0.11085845  0.30974530
   0.33206487  0.00103919  0.46012383
   0.55571607  0.11134423  0.30972601
   0.67194783  0.00384833  0.45966938
   0.88913736  0.11131437  0.30989546
   0.99930375  0.33302259  0.46046661
   0.22164824  0.44408174  0.30965866
   0.32956930  0.32858855  0.45963637
   0.55567330  0.44420627  0.30936384
   0.66802330  0.33227226  0.46018316
   0.88895572  0.44438774  0.30989732
   0.00014276  0.66644022  0.46021189
   0.22184010  0.77776089  0.30962475
   0.32799616  0.66325608  0.45868952
   0.55572060  0.77809589  0.30927043
   0.67188951  0.66991075  0.45985546
   0.88933544  0.77802286  0.30980307
   0.99997348  0.00005860  0.57249386
   0.11127112  0.22234749  0.27249089
   0.22262405  0.11144140  0.42206888
   0.11092393  0.22217542  0.49717150
   0.00002244  0.99996563  0.34741206
   0.33346131  0.99957422  0.57315344
   0.44446839  0.22230956  0.27249444
   0.55501859  0.11030665  0.42215993
   0.44289119  0.21949255  0.49698783
   0.33334379  0.99995214  0.34763754
   0.66347053  0.99710191  0.57259560
   0.77765687  0.22213747  0.27249012
   0.88855617  0.11092522  0.42190652
   0.77782149  0.22243277  0.49719352
   0.66643447  0.99968975  0.34766091
   0.99993691  0.33328681  0.57245793
   0.11130995  0.55565536  0.27249639
   0.22335632  0.44528048  0.42221052
   0.11124505  0.55581954  0.49712529
   0.00017863  0.33342601  0.34740360
   0.33503512  0.33640593  0.57211515
   0.44451795  0.55563452  0.27250891
   0.55472666  0.44530375  0.41867648
   0.44111956  0.55382101  0.49733174
   0.33357600  0.33351693  0.34774169
   0.66701535  0.33301238  0.57279547
   0.77759433  0.55556808  0.27249775
   0.88885570  0.44465980  0.42195868
   0.78040464  0.55707442  0.49705544
   0.66638936  0.33341280  0.34748794
   0.00010060  0.66670147  0.57248170
   0.11117012  0.88888124  0.27248703
   0.22297748  0.77809973  0.42225395
   0.11138403  0.88877320  0.49748691
   0.00010701  0.66677127  0.34747248
   0.33359855  0.66720058  0.57276597
   0.44446794  0.88876865  0.27250952
   0.55433848  0.77770418  0.41853609
   0.44170406  0.89082907  0.49634386
   0.33354457  0.66673128  0.34790014
   0.66182085  0.66380169  0.57268342
   0.77752332  0.88869001  0.27249622
   0.88845337  0.77736678  0.42202237
   0.78079398  0.89079820  0.49670136
   0.66631460  0.66664639  0.34780349
   0.42233364  0.90389058  0.62950400
   0.55901542  0.76349460  0.64056957
   0.56367364  0.76991264  0.51711636
   0.42561039  0.57838138  0.63405273
   0.55162559  0.44796528  0.64566186
   0.56567247  0.43590254  0.52016817
   0.49200098  0.83864778  0.58265381
   0.49651902  0.50105194  0.58279389
Direct configuration=     4
   0.00037992  0.00107286  0.46080237
   0.22225017  0.11109175  0.30919513
   0.33086696  0.00220212  0.46039514
   0.55572115  0.11200571  0.30957516
   0.67615206  0.00851381  0.45995753
   0.88940030  0.11161787  0.30948273
   0.99852813  0.33301300  0.46108537
   0.22157139  0.44352241  0.30924234
   0.32737572  0.32513390  0.45943436
   0.55573152  0.44410704  0.30905370
   0.66848253  0.33155967  0.46031149
   0.88847041  0.44429917  0.30977024
   0.00047692  0.66592390  0.46050141
   0.22149204  0.77804198  0.30920525
   0.32266864  0.65969173  0.45812376
   0.55600934  0.77787841  0.30766302
   0.67519905  0.67014769  0.45914130
   0.88916707  0.77762853  0.30943064
   0.00016485  0.00024054  0.57266739
   0.11129640  0.22239251  0.27244003
   0.22202273  0.11126271  0.42138410
   0.10930018  0.22111309  0.49661328
   0.00002993  0.99998557  0.34753820
   0.33289788  0.99997245  0.57369354
   0.44410686  0.22176831  0.27241788
   0.55500147  0.10963969  0.42154475
   0.44053992  0.21529273  0.49638271
   0.33306912  0.99981103  0.34782768
   0.65478844  0.98983167  0.57250052
   0.77760991  0.22190017  0.27247604
   0.88845517  0.11072270  0.42105065
   0.77885513  0.22283576  0.49648963
   0.66664084  0.99972908  0.34793370
   0.99974950  0.33314494  0.57267892
   0.11171918  0.55590780  0.27247446
   0.22381205  0.44571819  0.42157631
   0.11080096  0.55568604  0.49662139
   0.00038199  0.33341465  0.34745195
   0.33942642  0.34424068  0.57179497
   0.44419945  0.55604551  0.27239885
   0.55394665  0.44629546  0.41324003
   0.43792288  0.55044959  0.49830194
   0.33248142  0.33286616  0.34790907
   0.66721110  0.33310557  0.57335779
   0.77801997  0.55596467  0.27245320
   0.88903138  0.44484439  0.42113939
   0.78567227  0.56014302  0.49644024
   0.66657874  0.33301516  0.34749007
   0.00014966  0.66670300  0.57268498
   0.11125847  0.88884874  0.27241459
   0.22331505  0.77830388  0.42167016
   0.11138261  0.88887336  0.49771891
   0.00044617  0.66707608  0.34752972
   0.33968330  0.67414608  0.57277477
   0.44438390  0.88848152  0.27244258
   0.55320832  0.77820747  0.41512762
   0.44121170  0.89149229  0.49822254
   0.33329500  0.66664515  0.34833056
   0.65383316  0.65913007  0.57294803
   0.77732524  0.88865352  0.27242245
   0.88856311  0.77751978  0.42132056
   0.78525912  0.89373412  0.49531985
   0.66687716  0.66782847  0.34808683
   0.41626637  0.90905675  0.63295861
   0.55196228  0.76323262  0.63925092
   0.56835274  0.76858720  0.51911575
   0.42801300  0.58158025  0.63348732
   0.55355642  0.44605988  0.64797479
   0.56680655  0.43269356  0.52550283
   0.50110773  0.83964707  0.58422218
   0.49651688  0.49624774  0.58622383
Direct configuration=     5
   0.00017734  0.00086324  0.46067955
   0.22215966  0.11102924  0.30934255
   0.33118793  0.00189052  0.46032245
   0.55571979  0.11182847  0.30961558
   0.67502556  0.00726373  0.45988032
   0.88932985  0.11153655  0.30959331
   0.99873595  0.33301557  0.46091958
   0.22159198  0.44367228  0.30935389
   0.32796347  0.32605955  0.45948849
   0.55571592  0.44413363  0.30913680
   0.66835949  0.33175060  0.46027711
   0.88860044  0.44432290  0.30980429
   0.00038738  0.66606225  0.46042384
   0.22158530  0.77796667  0.30931765
   0.32409611  0.66064677  0.45827535
   0.55593198  0.77793668  0.30809371
   0.67431228  0.67008420  0.45933265
   0.88921218  0.77773418  0.30953043
   0.00011357  0.00019179  0.57262089
   0.11128963  0.22238045  0.27245366
   0.22218385  0.11131059  0.42156758
   0.10973525  0.22139774  0.49676285
   0.00002792  0.99998023  0.34750440
   0.33304884  0.99986574  0.57354883
   0.44420373  0.22191333  0.27243840
   0.55500606  0.10981840  0.42170958
   0.44116993  0.21641804  0.49654485
   0.33314272  0.99984884  0.34777674
   0.65711474  0.99177968  0.57252600
   0.77762249  0.22196375  0.27247981
   0.88848223  0.11077697  0.42127998
   0.77857817  0.22272778  0.49667823
   0.66658554  0.99971854  0.34786061
   0.99979971  0.33318295  0.57261971
   0.11160953  0.55584016  0.27248034
   0.22368994  0.44560091  0.42174624
   0.11091995  0.55572181  0.49675641
   0.00032750  0.33341769  0.34743899
   0.33824980  0.34214141  0.57188076
   0.44428479  0.55593539  0.27242834
   0.55415565  0.44602974  0.41469669
   0.43877941  0.55135294  0.49804198
   0.33277471  0.33304053  0.34786422
   0.66715865  0.33308060  0.57320712
   0.77790593  0.55585841  0.27246514
   0.88898431  0.44479493  0.42135891
   0.78426084  0.55932081  0.49660508
   0.66652800  0.33312170  0.34748950
   0.00013652  0.66670259  0.57263051
   0.11123480  0.88885745  0.27243400
   0.22322460  0.77824918  0.42182659
   0.11138299  0.88884652  0.49765675
   0.00035529  0.66699441  0.34751438
   0.33805293  0.67228508  0.57277241
   0.44440642  0.88855845  0.27246051
   0.55351114  0.77807262  0.41604090
   0.44134362  0.89131458  0.49771916
   0.33336187  0.66666823  0.34821523
   0.65597341  0.66038180  0.57287713
   0.77737831  0.88866330  0.27244222
   0.88853370  0.77747878  0.42150860
   0.78406272  0.89294746  0.49569002
   0.66672642  0.66751174  0.34801091
   0.41789205  0.90767251  0.63203298
   0.55385212  0.76330282  0.63960424
   0.56709901  0.76894234  0.51858003
   0.42736924  0.58072313  0.63363882
   0.55303907  0.44657042  0.64735506
   0.56650268  0.43355338  0.52407345
   0.49866764  0.83937932  0.58380194
   0.49651745  0.49753499  0.58530480
Direct configuration=     6
   0.00137965  0.00159886  0.46065768
   0.22258778  0.11129825  0.30855875
   0.33088033  0.00151217  0.46046872
   0.55561247  0.11212611  0.30957042
   0.67648609  0.01020219  0.45915066
   0.88934438  0.11162996  0.30905256
   0.99831001  0.33328055  0.46095913
   0.22185068  0.44339931  0.30892968
   0.32772343  0.32498357  0.45877982
   0.55567862  0.44429679  0.30853021
   0.66790313  0.33154130  0.45997747
   0.88817795  0.44432961  0.30957113
   0.00129805  0.66594787  0.46028892
   0.22154477  0.77829892  0.30894028
   0.32166943  0.65915054  0.45801427
   0.55609497  0.77765217  0.30647312
   0.67478051  0.66829062  0.45802595
   0.88882612  0.77726190  0.30906918
   0.00040991  0.00038623  0.57295292
   0.11124421  0.22233616  0.27224808
   0.22095925  0.11087532  0.42083915
   0.10771810  0.22010139  0.49617095
   0.00010578  0.00005584  0.34767161
   0.33240438  0.00039369  0.57452474
   0.44358215  0.22097451  0.27225931
   0.55570077  0.10976387  0.42108386
   0.43891931  0.21236995  0.49587210
   0.33269428  0.99984390  0.34794738
   0.65230248  0.98811068  0.57239098
   0.77765284  0.22176007  0.27238433
   0.88881011  0.11105128  0.42037990
   0.78007770  0.22336261  0.49580168
   0.66738807  0.00058075  0.34806777
   0.99959903  0.33299869  0.57307626
   0.11199559  0.55609362  0.27238590
   0.22325022  0.44502326  0.42100916
   0.10973213  0.55492208  0.49628087
   0.00047677  0.33336408  0.34759352
   0.34039572  0.34873496  0.57194911
   0.44367928  0.55631913  0.27215083
   0.55383211  0.44678263  0.41074319
   0.43631078  0.54751208  0.49928021
   0.33055858  0.33158296  0.34789459
   0.66731728  0.33346687  0.57384773
   0.77874032  0.55645448  0.27234677
   0.88900411  0.44468595  0.42052465
   0.79013314  0.56257959  0.49584583
   0.66714315  0.33232715  0.34753699
   0.00012317  0.66674166  0.57302059
   0.11133314  0.88887306  0.27222596
   0.22296585  0.77834008  0.42115534
   0.11108701  0.88904765  0.49804884
   0.00070437  0.66730704  0.34758661
   0.34654746  0.68189464  0.57235208
   0.44420436  0.88834076  0.27224184
   0.55276025  0.77884765  0.41376047
   0.44254583  0.89167686  0.50052790
   0.33224919  0.66613707  0.34837783
   0.64797040  0.65589422  0.57313414
   0.77745763  0.88880849  0.27215163
   0.88908315  0.77791848  0.42074797
   0.78856758  0.89605700  0.49425888
   0.66826186  0.66941178  0.34806396
   0.41631563  0.90906505  0.63290601
   0.55009783  0.76152828  0.64178074
   0.57180624  0.76765084  0.52042185
   0.42878713  0.58155647  0.63276010
   0.55725090  0.44224687  0.65281904
   0.56873931  0.42830856  0.52834613
   0.49242876  0.84286943  0.58531171
   0.49487702  0.49740359  0.58833206
Direct configuration=     7
   0.00123995  0.00151339  0.46066023
   0.22253803  0.11126699  0.30864982
   0.33091607  0.00155613  0.46045173
   0.55562494  0.11209152  0.30957566
   0.67631639  0.00986076  0.45923544
   0.88934270  0.11161911  0.30911540
   0.99835950  0.33324976  0.46095454
   0.22182062  0.44343103  0.30897897
   0.32775132  0.32510859  0.45886217
   0.55568296  0.44427783  0.30860069
   0.66795616  0.33156562  0.46001228
   0.88822704  0.44432883  0.30959822
   0.00119224  0.66596116  0.46030460
   0.22154948  0.77826031  0.30898413
   0.32195139  0.65932439  0.45804460
   0.55607603  0.77768523  0.30666142
   0.67472611  0.66849902  0.45817778
   0.88887097  0.77731677  0.30912277
   0.00037548  0.00036364  0.57291434
   0.11124949  0.22234130  0.27227196
   0.22110154  0.11092590  0.42092379
   0.10795248  0.22025202  0.49623972
   0.00009673  0.00004706  0.34765218
   0.33247927  0.00033234  0.57441135
   0.44365437  0.22108359  0.27228012
   0.55562005  0.10977020  0.42115656
   0.43918081  0.21284031  0.49595026
   0.33274638  0.99984448  0.34792756
   0.65286163  0.98853699  0.57240667
   0.77764931  0.22178374  0.27239542
   0.88877201  0.11101940  0.42048448
   0.77990347  0.22328885  0.49590353
   0.66729482  0.00048057  0.34804369
   0.99962235  0.33302010  0.57302321
   0.11195073  0.55606417  0.27239687
   0.22330131  0.44509037  0.42109480
   0.10987015  0.55501501  0.49633612
   0.00045943  0.33337031  0.34757557
   0.34014638  0.34796884  0.57194117
   0.44374964  0.55627454  0.27218308
   0.55386970  0.44669515  0.41120255
   0.43659762  0.54795836  0.49913634
   0.33081607  0.33175231  0.34789106
   0.66729885  0.33342199  0.57377330
   0.77864337  0.55638522  0.27236053
   0.88900180  0.44469861  0.42062158
   0.78945083  0.56220095  0.49593405
   0.66707167  0.33241947  0.34753147
   0.00012472  0.66673712  0.57297526
   0.11132171  0.88887125  0.27225013
   0.22299591  0.77832952  0.42123334
   0.11112140  0.88902428  0.49800328
   0.00066381  0.66727072  0.34757822
   0.34556047  0.68077809  0.57240092
   0.44422784  0.88836605  0.27226725
   0.55284750  0.77875760  0.41402544
   0.44240614  0.89163476  0.50020155
   0.33237847  0.66619879  0.34835894
   0.64890029  0.65641564  0.57310428
   0.77744841  0.88879162  0.27218539
   0.88901931  0.77786739  0.42083635
   0.78804415  0.89569570  0.49442516
   0.66808345  0.66919101  0.34805779
   0.41649879  0.90890325  0.63280457
   0.55053405  0.76173447  0.64152785
   0.57125930  0.76780090  0.52020785
   0.42862238  0.58145964  0.63286220
   0.55676152  0.44274923  0.65218417
   0.56847943  0.42891797  0.52784968
   0.49315367  0.84246390  0.58513629
   0.49506762  0.49741885  0.58798032
Direct configuration=     8
   0.00206045  0.00169821  0.46004893
   0.22216525  0.11097460  0.30796750
   0.33059467  0.00005836  0.46061031
   0.55561023  0.11170195  0.30948620
   0.67624734  0.00996636  0.45786644
   0.88937624  0.11159854  0.30877559
   0.99832445  0.33334678  0.46023350
   0.22160291  0.44346120  0.30866440
   0.32846058  0.32578002  0.45793836
   0.55563089  0.44452975  0.30718330
   0.66764633  0.33206028  0.45947237
   0.88858421  0.44444466  0.30937646
   0.00230368  0.66654105  0.45968704
   0.22156727  0.77821687  0.30863511
   0.32260707  0.65917633  0.45742985
   0.55606383  0.77785765  0.30571744
   0.67357017  0.66706153  0.45676074
   0.88906326  0.77755814  0.30885284
   0.00062641  0.00047776  0.57334139
   0.11121783  0.22226212  0.27184897
   0.22030543  0.11052299  0.42044135
   0.10690242  0.21973775  0.49582633
   0.00025111  0.00013916  0.34755088
   0.33167288  0.00081858  0.57538039
   0.44318249  0.22036101  0.27202734
   0.55636738  0.10995297  0.42086975
   0.43794494  0.21066606  0.49524165
   0.33246799  0.00004455  0.34810573
   0.65223904  0.98900712  0.57220667
   0.77763618  0.22171167  0.27217416
   0.88926862  0.11186179  0.41975275
   0.78091806  0.22394228  0.49512563
   0.66820855  0.00180170  0.34793541
   0.99950911  0.33279344  0.57360159
   0.11212626  0.55621969  0.27220486
   0.22274936  0.44419562  0.42065317
   0.10916462  0.55417875  0.49603835
   0.00054897  0.33339892  0.34763342
   0.33743933  0.34889014  0.57213299
   0.44331378  0.55644118  0.27179277
   0.55405749  0.44700983  0.41086885
   0.43559238  0.54480457  0.50003253
   0.32863144  0.33019259  0.34770191
   0.66738101  0.33401103  0.57422144
   0.77923714  0.55675183  0.27217025
   0.88855548  0.44420235  0.42001019
   0.79279250  0.56408273  0.49526464
   0.66760544  0.33157664  0.34757519
   0.00008254  0.66689552  0.57344639
   0.11147540  0.88895575  0.27189206
   0.22312883  0.77858059  0.42095200
   0.11103014  0.88918894  0.49839529
   0.00092835  0.66744207  0.34752576
   0.34879488  0.68549323  0.57132134
   0.44408034  0.88834195  0.27194759
   0.55221213  0.77924531  0.41410845
   0.44400050  0.89203129  0.50266117
   0.33079572  0.66540951  0.34826545
   0.64507036  0.65429746  0.57312780
   0.77756009  0.88894907  0.27164716
   0.88949261  0.77802257  0.42019863
   0.79051767  0.89738715  0.49336057
   0.66979192  0.67086609  0.34772582
   0.41518533  0.91078468  0.63345977
   0.54855697  0.76241896  0.64402362
   0.57532384  0.76747058  0.52084431
   0.42708400  0.58213387  0.63323037
   0.55638152  0.44231174  0.65363499
   0.57066319  0.42349466  0.53010779
   0.48672065  0.84379836  0.58731028
   0.50018058  0.49593151  0.59478647
Direct configuration=     9
   0.00170048  0.00161713  0.46031711
   0.22232880  0.11110288  0.30826684
   0.33073567  0.00071545  0.46054074
   0.55561668  0.11187286  0.30952545
   0.67627763  0.00992003  0.45846704
   0.88936152  0.11160756  0.30892467
   0.99833983  0.33330422  0.46054983
   0.22169842  0.44344796  0.30880241
   0.32814942  0.32548546  0.45834364
   0.55565373  0.44441923  0.30780513
   0.66778225  0.33184327  0.45970924
   0.88842752  0.44439385  0.30947375
   0.00181608  0.66628665  0.45995797
   0.22155947  0.77823593  0.30878823
   0.32231941  0.65924129  0.45769955
   0.55606918  0.77778201  0.30613158
   0.67407730  0.66769218  0.45738241
   0.88897890  0.77745225  0.30897127
   0.00051633  0.00042769  0.57315404
   0.11123172  0.22229686  0.27203454
   0.22065469  0.11069975  0.42065300
   0.10736310  0.21996336  0.49600769
   0.00018338  0.00009875  0.34759532
   0.33202665  0.00060526  0.57495526
   0.44338951  0.22067801  0.27213824
   0.55603951  0.10987279  0.42099558
   0.43848714  0.21161993  0.49555253
   0.33259013  0.99995677  0.34802756
   0.65251218  0.98880087  0.57229441
   0.77764194  0.22174329  0.27227123
   0.88905075  0.11149222  0.42007377
   0.78047295  0.22365561  0.49546690
   0.66780769  0.00122211  0.34798292
   0.99955879  0.33289288  0.57334785
   0.11204925  0.55615146  0.27228910
   0.22299151  0.44458816  0.42084692
   0.10947414  0.55454562  0.49616898
   0.00050969  0.33338637  0.34760804
   0.33862694  0.34848596  0.57204884
   0.44350500  0.55636807  0.27196400
   0.55397510  0.44687178  0.41101525
   0.43603339  0.54618818  0.49963936
   0.32958987  0.33087686  0.34778489
   0.66734497  0.33375261  0.57402484
   0.77897665  0.55659099  0.27225372
   0.88875129  0.44442007  0.42027841
   0.79132646  0.56325717  0.49555832
   0.66737127  0.33194640  0.34755601
   0.00010105  0.66682603  0.57323970
   0.11140797  0.88891868  0.27204915
   0.22307052  0.77847044  0.42107542
   0.11107018  0.88911670  0.49822331
   0.00081230  0.66736690  0.34754878
   0.34737590  0.68342464  0.57179497
   0.44414505  0.88835253  0.27208783
   0.55249087  0.77903135  0.41407203
   0.44330103  0.89185733  0.50158210
   0.33149009  0.66575577  0.34830646
   0.64675060  0.65522673  0.57311748
   0.77751109  0.88887999  0.27188329
   0.88928497  0.77795449  0.42047840
   0.78943250  0.89664509  0.49382762
   0.66904239  0.67013121  0.34787146
   0.41576156  0.90995927  0.63317233
   0.54942434  0.76211867  0.64292869
   0.57354067  0.76761550  0.52056509
   0.42775891  0.58183808  0.63306885
   0.55654823  0.44250367  0.65299850
   0.56970515  0.42587394  0.52911713
   0.48954290  0.84321291  0.58635652
   0.49793746  0.49658403  0.59180053
Direct configuration=    10
   0.00205068  0.00150364  0.45968097
   0.22152180  0.11052181  0.30789835
   0.33026435  0.99930807  0.46078758
   0.55569663  0.11135087  0.30945224
   0.67594938  0.00863176  0.45747350
   0.88956337  0.11167405  0.30877947
   0.99841561  0.33314518  0.45978582
   0.22100904  0.44340004  0.30864985
   0.32922197  0.32707477  0.45794796
   0.55560796  0.44446275  0.30656127
   0.66801652  0.33237040  0.45919111
   0.88910392  0.44441994  0.30936588
   0.00273258  0.66704529  0.45937281
   0.22150625  0.77804005  0.30853165
   0.32431642  0.65908416  0.45700631
   0.55604545  0.77829039  0.30591614
   0.67235103  0.66694606  0.45644446
   0.88963900  0.77819356  0.30890010
   0.00068379  0.00049640  0.57350081
   0.11115797  0.22222560  0.27151302
   0.22042610  0.11030955  0.42036347
   0.10714189  0.22003600  0.49575019
   0.00029614  0.00014205  0.34721891
   0.33114022  0.00105158  0.57565740
   0.44326946  0.22048950  0.27184811
   0.55643255  0.10986755  0.42092508
   0.43811366  0.21087710  0.49490012
   0.33251023  0.00012534  0.34813254
   0.65141687  0.98908322  0.57242075
   0.77762060  0.22177144  0.27198005
   0.88949306  0.11243282  0.41945331
   0.78090797  0.22410429  0.49480517
   0.66841061  0.00224027  0.34757688
   0.99949935  0.33264197  0.57380294
   0.11205376  0.55622681  0.27202761
   0.22267778  0.44399496  0.42058069
   0.10953910  0.55412537  0.49594393
   0.00059919  0.33352902  0.34744993
   0.33762958  0.34921308  0.57288703
   0.44345281  0.55641436  0.27156848
   0.55447354  0.44692073  0.41237852
   0.43632728  0.54436330  0.50005423
   0.32826786  0.32987446  0.34733611
   0.66741660  0.33429020  0.57423097
   0.77906236  0.55660963  0.27202193
   0.88817827  0.44393775  0.41981822
   0.79212873  0.56382517  0.49509881
   0.66755190  0.33139019  0.34746270
   0.00005451  0.66704187  0.57358375
   0.11157335  0.88897866  0.27163316
   0.22372421  0.77883982  0.42108101
   0.11125191  0.88915688  0.49848404
   0.00107378  0.66744912  0.34734661
   0.34518545  0.68307236  0.57060733
   0.44411941  0.88836231  0.27176565
   0.55188965  0.77920378  0.41524935
   0.44431180  0.89226554  0.50317599
   0.33018306  0.66510370  0.34802517
   0.64617276  0.65421894  0.57341405
   0.77744453  0.88896412  0.27128337
   0.88958910  0.77781609  0.41994538
   0.79031289  0.89716534  0.49309200
   0.67012778  0.67111415  0.34724955
   0.41281751  0.91349879  0.63480368
   0.54740458  0.76383690  0.64476829
   0.57593695  0.76792501  0.52061142
   0.42645598  0.58204726  0.63413506
   0.55688085  0.44146260  0.65545339
   0.57051234  0.42221371  0.53089851
   0.49219227  0.84478263  0.58715997
   0.49834417  0.49494793  0.59418986
Direct configuration=    11
   0.00205374  0.00150265  0.45967541
   0.22151475  0.11051673  0.30789513
   0.33026023  0.99929577  0.46078974
   0.55569733  0.11134630  0.30945160
   0.67594651  0.00862050  0.45746482
   0.88956514  0.11167463  0.30877821
   0.99841627  0.33314379  0.45977914
   0.22100301  0.44339962  0.30864851
   0.32923135  0.32708866  0.45794451
   0.55560756  0.44446313  0.30655040
   0.66801857  0.33237500  0.45918658
   0.88910983  0.44442017  0.30936493
   0.00274059  0.66705192  0.45936770
   0.22150578  0.77803833  0.30852941
   0.32433387  0.65908279  0.45700025
   0.55604525  0.77829483  0.30591425
   0.67233594  0.66693954  0.45643626
   0.88964476  0.77820003  0.30889948
   0.00068525  0.00049700  0.57350384
   0.11115733  0.22222498  0.27150846
   0.22042410  0.11030614  0.42036094
   0.10713995  0.22003663  0.49574794
   0.00029712  0.00014243  0.34721562
   0.33113247  0.00105548  0.57566354
   0.44326841  0.22048785  0.27184558
   0.55643598  0.10986750  0.42092447
   0.43811039  0.21087061  0.49489441
   0.33250953  0.00012681  0.34813346
   0.65140730  0.98908569  0.57242186
   0.77762041  0.22177168  0.27197750
   0.88949693  0.11244105  0.41944789
   0.78091178  0.22410822  0.49479939
   0.66841588  0.00224917  0.34757333
   0.99949883  0.33263978  0.57380692
   0.11205380  0.55622747  0.27202533
   0.22267504  0.44398977  0.42057836
   0.10953967  0.55412170  0.49594196
   0.00059997  0.33353027  0.34744854
   0.33762086  0.34921943  0.57289436
   0.44345235  0.55641477  0.27156502
   0.55447790  0.44692116  0.41239043
   0.43632985  0.54434735  0.50005786
   0.32825631  0.32986570  0.34733219
   0.66741723  0.33429490  0.57423277
   0.77906310  0.55660979  0.27201991
   0.88817326  0.44393354  0.41981420
   0.79213574  0.56383014  0.49509480
   0.66755348  0.33138533  0.34746189
   0.00005410  0.66704376  0.57358676
   0.11157480  0.88897918  0.27162952
   0.22372992  0.77884305  0.42108106
   0.11125350  0.88915723  0.49848632
   0.00107606  0.66744984  0.34734484
   0.34516630  0.68306928  0.57059695
   0.44411919  0.88836240  0.27176283
   0.55188440  0.77920529  0.41525964
   0.44432064  0.89226911  0.50318992
   0.33017164  0.66509800  0.34802271
   0.64616771  0.65421013  0.57341664
   0.77744395  0.88896485  0.27127813
   0.88959175  0.77781488  0.41994072
   0.79032058  0.89716989  0.49308557
   0.67013726  0.67112274  0.34724411
   0.41279178  0.91352972  0.63481794
   0.54738693  0.76385192  0.64478437
   0.57595789  0.76792771  0.52061182