   99   99  300    2
  0.2476804E+02  0.1159820E-08  0.1159820E-08  0.2104820E-08  0.5000000E-15
  1.000000000000000E-004
  CAR 
 unknown system                          
    738      5    480
