       N       E                     dE             d eps       ncg     rms          rms(c)
DAV:   1     0.115862646347E+05    0.11586E+05   -0.30574E+05  9600   0.160E+03
DAV:   2     0.301493972092E+04   -0.85713E+04   -0.74174E+04 10752   0.430E+02
DAV:   3    -0.390264952526E+03   -0.34052E+04   -0.32516E+04 13104   0.245E+02
DAV:   4    -0.885603704824E+03   -0.49534E+03   -0.48959E+03 14496   0.103E+02
DAV:   5    -0.907500991617E+03   -0.21897E+02   -0.21759E+02 15888   0.284E+01    0.179E+02
DAV:   6    -0.150290541183E+04   -0.59540E+03   -0.10963E+04 16320   0.102E+02    0.739E+02
DAV:   7    -0.192430759149E+04   -0.42140E+03   -0.93196E+02 14256   0.512E+01    0.755E+02
DAV:   8    -0.188202732195E+04    0.42280E+02   -0.20339E+03 13248   0.132E+02    0.758E+02
DAV:   9    -0.189909553037E+04   -0.17068E+02   -0.12324E+02 14400   0.172E+01    0.719E+02
DAV:  10    -0.964066004257E+03    0.93503E+03   -0.28235E+03 15168   0.183E+02    0.519E+02
DAV:  11    -0.105448593848E+04   -0.90420E+02   -0.44973E+03 15792   0.164E+02    0.454E+02
DAV:  12    -0.673633629013E+03    0.38085E+03   -0.71042E+02 15312   0.717E+01    0.201E+02
DAV:  13    -0.798287038201E+03   -0.12465E+03   -0.15616E+03 16128   0.122E+02    0.265E+02
DAV:  14    -0.680621785884E+03    0.11767E+03   -0.66786E+02 15840   0.114E+02    0.158E+02
DAV:  15    -0.667134787407E+03    0.13487E+02   -0.87733E+02 16464   0.126E+02    0.147E+02
DAV:  16    -0.656993220455E+03    0.10142E+02   -0.69325E+02 14304   0.905E+01    0.123E+02
DAV:  17    -0.658682819176E+03   -0.16896E+01   -0.20202E+02 15072   0.323E+01    0.114E+02
DAV:  18    -0.662096671258E+03   -0.34139E+01   -0.67485E+01 16608   0.128E+01    0.112E+02
DAV:  19    -0.665633936309E+03   -0.35373E+01   -0.98543E+01 16704   0.792E+00    0.109E+02
DAV:  20    -0.661477791131E+03    0.41561E+01   -0.30413E+01 15456   0.116E+01    0.112E+02
DAV:  21    -0.660116838279E+03    0.13610E+01   -0.42358E+01 16272   0.136E+01    0.113E+02
DAV:  22    -0.657586974495E+03    0.25299E+01   -0.45017E+01 14880   0.162E+01    0.110E+02
DAV:  23    -0.656606621548E+03    0.98035E+00   -0.13698E+01 15120   0.706E+00    0.113E+02
DAV:  24    -0.656784266891E+03   -0.17765E+00   -0.57624E+00 14880   0.394E+00    0.114E+02
DAV:  25    -0.656391818414E+03    0.39245E+00   -0.11457E+01 15408   0.362E+00    0.115E+02
DAV:  26    -0.656579854882E+03   -0.18804E+00   -0.23652E+00 15936   0.278E+00    0.115E+02
DAV:  27    -0.656142199799E+03    0.43766E+00   -0.71509E-01 14544   0.159E+00    0.115E+02
DAV:  28    -0.656485746474E+03   -0.34355E+00   -0.21380E+00 13440   0.293E+00    0.117E+02
DAV:  29    -0.657038389473E+03   -0.55264E+00   -0.19211E+00 15792   0.377E+00    0.120E+02
DAV:  30    -0.657633490092E+03   -0.59510E+00   -0.20257E+00 14736   0.354E+00    0.122E+02
DAV:  31    -0.658550783834E+03   -0.91729E+00   -0.20221E+00 15792   0.306E+00    0.125E+02
DAV:  32    -0.658947945899E+03   -0.39716E+00   -0.14287E+00 14256   0.274E+00    0.128E+02
DAV:  33    -0.659360601814E+03   -0.41266E+00   -0.10742E+00 14928   0.234E+00    0.130E+02
DAV:  34    -0.659517883152E+03   -0.15728E+00   -0.67280E-01 14160   0.225E+00    0.132E+02
DAV:  35    -0.659510597633E+03    0.72855E-02   -0.13743E-01 15696   0.693E-01    0.132E+02
DAV:  36    -0.659484346109E+03    0.26252E-01   -0.20409E-02 16944   0.247E-01    0.132E+02
DAV:  37    -0.659375097187E+03    0.10925E+00   -0.31935E-02 15792   0.514E-01    0.132E+02
DAV:  38    -0.659289910469E+03    0.85187E-01   -0.56689E-02 16224   0.711E-01    0.133E+02
DAV:  39    -0.659381146376E+03   -0.91236E-01   -0.20117E-02 15888   0.356E-01    0.133E+02
DAV:  40    -0.659567955515E+03   -0.18681E+00   -0.49652E-02 15936   0.702E-01    0.133E+02
DAV:  41    -0.660016323236E+03   -0.44837E+00   -0.17859E-01 15024   0.132E+00    0.134E+02
DAV:  42    -0.660924594234E+03   -0.90827E+00   -0.41917E-01 15840   0.206E+00    0.136E+02
DAV:  43    -0.662305490582E+03   -0.13809E+01   -0.63815E-01 15168   0.221E+00    0.141E+02
DAV:  44    -0.663270396234E+03   -0.96491E+00   -0.52448E-01 15024   0.173E+00    0.146E+02
DAV:  45    -0.664735271514E+03   -0.14649E+01   -0.53715E-01 15408   0.159E+00    0.152E+02
DAV:  46    -0.665889582559E+03   -0.11543E+01   -0.54976E-01 15600   0.158E+00    0.158E+02
DAV:  47    -0.666549975922E+03   -0.66039E+00   -0.22383E-01 16512   0.101E+00    0.162E+02
DAV:  48    -0.667449367286E+03   -0.89939E+00   -0.28065E-01 15168   0.979E-01    0.168E+02
DAV:  49    -0.667661555760E+03   -0.21219E+00   -0.79363E-02 15552   0.608E-01    0.170E+02
DAV:  50    -0.667875564847E+03   -0.21401E+00   -0.77925E-02 15024   0.545E-01    0.172E+02
DAV:  51    -0.732313474535E+03   -0.64438E+02   -0.23464E+02 15456   0.331E+01    0.191E+02
DAV:  52    -0.658500544327E+03    0.73813E+02   -0.94132E+01 15840   0.362E+01    0.113E+02
DAV:  53    -0.652956405204E+03    0.55441E+01   -0.11209E+01 14928   0.949E+00    0.100E+02
DAV:  54    -0.652215543904E+03    0.74086E+00   -0.32387E+00 16368   0.378E+00    0.975E+01
DAV:  55    -0.652696252346E+03   -0.48071E+00   -0.42985E-01 14976   0.109E+00    0.998E+01
DAV:  56    -0.663607063215E+03   -0.10911E+02   -0.19940E+02 14400   0.381E+01    0.148E+02
DAV:  57    -0.655010783225E+03    0.85963E+01   -0.25415E+01 14448   0.118E+01    0.131E+02
DAV:  58    -0.654343486308E+03    0.66730E+00   -0.12216E+01 16608   0.502E+00    0.117E+02
DAV:  59    -0.660651505069E+03   -0.63080E+01   -0.65456E+00 16368   0.313E+00    0.120E+02
DAV:  60    -0.661979057789E+03   -0.13276E+01   -0.95296E-01 14736   0.267E+00    0.122E+02
DAV:  61    -0.660470015241E+03    0.15090E+01   -0.36281E+00 14160   0.643E+00    0.116E+02
DAV:  62    -0.661181246495E+03   -0.71123E+00   -0.20617E+00 15072   0.360E+00    0.115E+02
DAV:  63    -0.664635249313E+03   -0.34540E+01   -0.57747E+00 14496   0.639E+00    0.121E+02
DAV:  64    -0.664255351267E+03    0.37990E+00   -0.33977E+00 14832   0.290E+00    0.116E+02
DAV:  65    -0.664305242935E+03   -0.49892E-01   -0.10870E-01 15264   0.103E+00    0.116E+02
DAV:  66    -0.672925161421E+03   -0.86199E+01   -0.48767E+01 14784   0.151E+01    0.123E+02
DAV:  67    -0.676996228718E+03   -0.40711E+01   -0.45337E+01 15888   0.103E+01    0.133E+02
DAV:  68    -0.678849926738E+03   -0.18537E+01   -0.34459E+00 14784   0.385E+00    0.135E+02
DAV:  69    -0.683989439165E+03   -0.51395E+01   -0.31856E+00 16416   0.397E+00    0.135E+02
DAV:  70    -0.683720232362E+03    0.26921E+00   -0.26196E-01 13680   0.993E-01    0.135E+02
DAV:  71    -0.677060643013E+03    0.66596E+01   -0.30669E+00 14352   0.588E+00    0.133E+02
DAV:  72    -0.676428849674E+03    0.63179E+00   -0.10342E+00 14016   0.163E+00    0.135E+02
DAV:  73    -0.676428325485E+03    0.52419E-03   -0.98926E-01 15168   0.136E+00    0.131E+02
DAV:  74    -0.675792465768E+03    0.63586E+00   -0.19668E+00 15936   0.268E+00    0.130E+02
DAV:  75    -0.677520841618E+03   -0.17284E+01   -0.11861E+00 15744   0.326E+00    0.130E+02
DAV:  76    -0.679045687972E+03   -0.15248E+01   -0.14692E+00 15216   0.324E+00    0.130E+02
DAV:  77    -0.679555836477E+03   -0.51015E+00   -0.26567E-01 14016   0.131E+00    0.130E+02
DAV:  78    -0.680021824557E+03   -0.46599E+00   -0.99653E-02 17184   0.892E-01    0.130E+02
DAV:  79    -0.680822278455E+03   -0.80045E+00   -0.49478E-01 15216   0.230E+00    0.131E+02
DAV:  80    -0.680214685978E+03    0.60759E+00   -0.20377E-01 14112   0.144E+00    0.131E+02
DAV:  81    -0.672317992681E+03    0.78967E+01   -0.93751E+00 12624   0.160E+01    0.119E+02
DAV:  82    -0.671967922534E+03    0.35007E+00   -0.16440E+01 14496   0.997E+00    0.117E+02
DAV:  83    -0.668477223993E+03    0.34907E+01   -0.46654E+00 15456   0.560E+00    0.113E+02
DAV:  84    -0.668486398162E+03   -0.91742E-02   -0.78912E-01 14352   0.174E+00    0.113E+02
DAV:  85    -0.667140093051E+03    0.13463E+01   -0.16455E+00 16176   0.398E+00    0.112E+02
DAV:  86    -0.660640067272E+03    0.65000E+01   -0.11747E+01 13632   0.931E+00    0.107E+02
DAV:  87    -0.657399044556E+03    0.32410E+01   -0.44420E+00 15360   0.614E+00    0.100E+02
DAV:  88    -0.657477497891E+03   -0.78453E-01   -0.12189E+01 15984   0.826E+00    0.937E+01
DAV:  89    -0.658574218185E+03   -0.10967E+01   -0.10570E+01 15456   0.763E+00    0.921E+01
DAV:  90    -0.657036559877E+03    0.15377E+01   -0.34995E+00 15072   0.514E+00
   1 F= -.65703656E+03 E0= -.65701145E+03  d E =-.657037E+03  mag=    35.2932
       N       E                     dE             d eps       ncg     rms          rms(c)
DAV:   1    -0.605530699828E+03    0.53044E+02   -0.16887E+03 17232   0.939E+01    0.146E+02
DAV:   2    -0.129100272902E+04   -0.68547E+03   -0.13635E+04 11952   0.682E+02    0.298E+02
DAV:   3    -0.110763167809E+04    0.18337E+03   -0.90423E+03 17184   0.256E+02    0.253E+02
DAV:   4    -0.973161121933E+03    0.13447E+03   -0.21679E+03 15072   0.154E+02    0.103E+02
DAV:   5    -0.806761418759E+03    0.16640E+03   -0.96551E+02 16128   0.473E+01    0.143E+02
DAV:   6    -0.738583239784E+03    0.68178E+02   -0.34676E+02 14928   0.215E+01    0.582E+01
DAV:   7    -0.722586384270E+03    0.15997E+02   -0.17001E+02 16560   0.172E+01    0.539E+01
DAV:   8    -0.709475022320E+03    0.13111E+02   -0.11588E+02 15168   0.105E+01    0.418E+01
DAV:   9    -0.686907889368E+03    0.22567E+02   -0.33486E+01 15456   0.961E+00    0.322E+01
DAV:  10    -0.678452390932E+03    0.84555E+01   -0.53382E+01 13968   0.841E+00    0.363E+01
DAV:  11    -0.672167739207E+03    0.62847E+01   -0.46852E+01 16704   0.558E+00    0.242E+01
DAV:  12    -0.667801805985E+03    0.43659E+01   -0.11231E+01 14832   0.458E+00    0.215E+01
DAV:  13    -0.664645408848E+03    0.31564E+01   -0.10732E+01 14640   0.448E+00    0.168E+01
DAV:  14    -0.663994486050E+03    0.65092E+00   -0.85474E+00 15504   0.375E+00    0.204E+01
DAV:  15    -0.662313073674E+03    0.16814E+01   -0.15650E+01 14976   0.364E+00    0.163E+01
DAV:  16    -0.662614300237E+03   -0.30123E+00   -0.10324E+01 15696   0.345E+00    0.226E+01
DAV:  17    -0.662282307567E+03    0.33199E+00   -0.17242E+01 15888   0.176E+00    0.156E+01
DAV:  18    -0.662253294874E+03    0.29013E-01   -0.85888E-01 14640   0.167E+00    0.134E+01
DAV:  19    -0.662013283952E+03    0.24001E+00   -0.88589E-01 15264   0.181E+00    0.118E+01
DAV:  20    -0.662274244497E+03   -0.26096E+00   -0.57746E+00 14544   0.138E+00    0.141E+01
DAV:  21    -0.662350375942E+03   -0.76131E-01   -0.40722E-01 14208   0.866E-01    0.142E+01
DAV:  22    -0.662326270675E+03    0.24105E-01   -0.78768E-02 16224   0.462E-01    0.140E+01
DAV:  23    -0.662300869383E+03    0.25401E-01   -0.10594E+00 14016   0.219E+00    0.135E+01
DAV:  24    -0.662222431657E+03    0.78438E-01   -0.21677E+00 15696   0.191E+00    0.121E+01
DAV:  25    -0.662102058180E+03    0.12037E+00   -0.10615E+00 14640   0.209E+00    0.901E+00
DAV:  26    -0.662380135523E+03   -0.27808E+00   -0.89263E-01 13872   0.177E+00    0.115E+01
DAV:  27    -0.662354316595E+03    0.25819E-01   -0.28109E-01 15648   0.831E-01    0.105E+01
DAV:  28    -0.662331724285E+03    0.22592E-01   -0.82951E-02 15024   0.282E-01    0.101E+01
DAV:  29    -0.662336776266E+03   -0.50520E-02   -0.55862E-03 14496   0.132E-01    0.100E+01
DAV:  30    -0.662494586286E+03   -0.15781E+00   -0.27686E-01 14544   0.543E-01    0.108E+01
DAV:  31    -0.662491240995E+03    0.33453E-02   -0.27981E-01 13008   0.440E-01    0.931E+00
DAV:  32    -0.662575306697E+03   -0.84066E-01   -0.50866E-02 13248   0.568E-01    0.899E+00
DAV:  33    -0.663030499386E+03   -0.45519E+00   -0.71410E-01 15168   0.159E+00    0.889E+00
DAV:  34    -0.663112720574E+03   -0.82221E-01   -0.50597E-01 14256   0.163E+00    0.750E+00
DAV:  35    -0.663187622241E+03   -0.74902E-01   -0.23759E-01 13728   0.971E-01    0.727E+00
DAV:  36    -0.663558086453E+03   -0.37046E+00   -0.25972E-01 13968   0.183E+00    0.904E+00
DAV:  37    -0.663379651251E+03    0.17844E+00   -0.17686E-01 14016   0.136E+00    0.745E+00
DAV:  38    -0.663473419537E+03   -0.93768E-01   -0.11916E-01 15408   0.626E-01    0.730E+00
DAV:  39    -0.663579963936E+03   -0.10654E+00   -0.41550E-02 14928   0.430E-01    0.746E+00
DAV:  40    -0.663651989559E+03   -0.72026E-01   -0.18403E-01 13680   0.579E-01    0.103E+01
DAV:  41    -0.663593520804E+03    0.58469E-01   -0.31039E-02 14400   0.298E-01    0.845E+00
DAV:  42    -0.663733294611E+03   -0.13977E+00   -0.11411E-01 14448   0.382E-01    0.118E+01
DAV:  43    -0.663730432292E+03    0.28623E-02   -0.36211E-02 14784   0.380E-01    0.108E+01
DAV:  44    -0.663687447850E+03    0.42984E-01   -0.50704E-02 14976   0.665E-01    0.978E+00
DAV:  45    -0.663678948889E+03    0.84990E-02   -0.89758E-02 14448   0.466E-01    0.743E+00
DAV:  46    -0.663695093144E+03   -0.16144E-01   -0.42563E-02 14736   0.353E-01    0.688E+00
DAV:  47    -0.663857671734E+03   -0.16258E+00   -0.11802E+00 14256   0.191E+00    0.135E+01
DAV:  48    -0.663812970960E+03    0.44701E-01   -0.80433E-02 14208   0.508E-01    0.128E+01
DAV:  49    -0.663724078064E+03    0.88893E-01   -0.14011E-01 15984   0.336E-01    0.944E+00
DAV:  50    -0.663724759072E+03   -0.68101E-03   -0.23310E-02 13488   0.238E-01    0.834E+00
DAV:  51    -0.663746850363E+03   -0.22091E-01   -0.29356E-02 14496   0.253E-01    0.761E+00
DAV:  52    -0.663768314536E+03   -0.21464E-01   -0.81050E-02 13392   0.669E-01    0.662E+00
DAV:  53    -0.663755323318E+03    0.12991E-01   -0.23883E-02 15504   0.286E-01    0.649E+00
DAV:  54    -0.663735412618E+03    0.19911E-01   -0.19052E-02 14880   0.236E-01    0.637E+00
DAV:  55    -0.663713060704E+03    0.22352E-01   -0.15742E-02 13776   0.224E-01    0.637E+00
DAV:  56    -0.663705406426E+03    0.76543E-02   -0.97203E-03 14256   0.185E-01    0.647E+00
DAV:  57    -0.663706958175E+03   -0.15517E-02   -0.19106E-02 14256   0.312E-01    0.661E+00
DAV:  58    -0.663706548818E+03    0.40936E-03   -0.39418E-03 14928   0.103E-01    0.667E+00
DAV:  59    -0.663703252338E+03    0.32965E-02   -0.56999E-04 14544   0.345E-02    0.671E+00
DAV:  60    -0.663718407094E+03   -0.15155E-01   -0.27514E-03 12912   0.828E-02    0.656E+00
DAV:  61    -0.663762454724E+03   -0.44048E-01   -0.45891E-02 12288   0.341E-01    0.604E+00
DAV:  62    -0.663756147895E+03    0.63068E-02   -0.36073E-02 14496   0.346E-01    0.565E+00
DAV:  63    -0.663746915544E+03    0.92324E-02   -0.35545E-02 13776   0.381E-01    0.517E+00
DAV:  64    -0.663732126270E+03    0.14789E-01   -0.22999E-02 13824   0.254E-01    0.485E+00
DAV:  65    -0.663724731559E+03    0.73947E-02   -0.10441E-02 14112   0.155E-01    0.472E+00
DAV:  66    -0.663721847461E+03    0.28841E-02   -0.26567E-03 15744   0.888E-02    0.468E+00
DAV:  67    -0.663716137814E+03    0.57096E-02   -0.18683E-02 13104   0.184E-01    0.448E+00
DAV:  68    -0.663716286762E+03   -0.14895E-03   -0.38184E-03 14304   0.104E-01    0.442E+00
DAV:  69    -0.663709006727E+03    0.72800E-02   -0.36710E-03 13248   0.110E-01    0.438E+00
DAV:  70    -0.663689496299E+03    0.19510E-01   -0.14381E-02 13200   0.174E-01    0.428E+00
DAV:  71    -0.663680700182E+03    0.87961E-02   -0.36031E-03 14496   0.898E-02    0.424E+00
DAV:  72    -0.663715091986E+03   -0.34392E-01   -0.86502E-01 13920   0.141E+00    0.855E+00
DAV:  73    -0.663631400419E+03    0.83692E-01   -0.10554E-01 14256   0.528E-01    0.536E+00
DAV:  74    -0.663599756100E+03    0.31644E-01   -0.12974E-01 14592   0.533E-01    0.379E+00
DAV:  75    -0.663598148764E+03    0.16073E-02   -0.84793E-02 14496   0.474E-01    0.377E+00
DAV:  76    -0.663586363523E+03    0.11785E-01   -0.93779E-02 14256   0.399E-01    0.313E+00
DAV:  77    -0.663560820913E+03    0.25543E-01   -0.31698E-01 13776   0.973E-01    0.366E+00
DAV:  78    -0.663541619237E+03    0.19202E-01   -0.92128E-02 14640   0.559E-01    0.214E+00
DAV:  79    -0.663547237627E+03   -0.56184E-02   -0.10638E-01 14064   0.438E-01    0.173E+00
DAV:  80    -0.663552713461E+03   -0.54758E-02   -0.36187E-02 13968   0.314E-01    0.182E+00
DAV:  81    -0.663560000656E+03   -0.72872E-02   -0.27191E-02 14352   0.216E-01    0.218E+00
DAV:  82    -0.663557333523E+03    0.26671E-02   -0.10354E-02 14688   0.224E-01    0.215E+00
DAV:  83    -0.663553984120E+03    0.33494E-02   -0.58312E-03 13872   0.107E-01    0.200E+00
DAV:  84    -0.663552816806E+03    0.11673E-02   -0.22836E-02 14496   0.186E-01    0.185E+00
DAV:  85    -0.663558254414E+03   -0.54376E-02   -0.27373E-02 13968   0.219E-01    0.208E+00
DAV:  86    -0.663553768395E+03    0.44860E-02   -0.16554E-02 13632   0.196E-01    0.160E+00
DAV:  87    -0.663555902004E+03   -0.21336E-02   -0.18956E-02 14544   0.174E-01    0.114E+00
DAV:  88    -0.663560320986E+03   -0.44190E-02   -0.61093E-03 13488   0.125E-01    0.107E+00
DAV:  89    -0.663563682182E+03   -0.33612E-02   -0.39143E-03 14016   0.999E-02    0.105E+00
DAV:  90    -0.663565358688E+03   -0.16765E-02   -0.56456E-03 14160   0.109E-01
   2 F= -.66356536E+03 E0= -.66354030E+03  d E =-.652880E+01  mag=    21.1069
       N       E                     dE             d eps       ncg     rms          rms(c)
DAV:   1    -0.663965558398E+03   -0.40188E+00   -0.12508E+01  9840   0.487E+00    0.265E+00
DAV:   2    -0.664123404585E+03   -0.15785E+00   -0.20472E+00 15696   0.217E+00    0.107E+01
DAV:   3    -0.664035464742E+03    0.87940E-01   -0.21659E+00 15504   0.103E+00    0.379E+00
DAV:   4    -0.664038329502E+03   -0.28648E-02   -0.29420E-01 16800   0.978E-01    0.260E+00
DAV:   5    -0.664041568977E+03   -0.32395E-02   -0.16439E-01 14880   0.592E-01    0.174E+00
DAV:   6    -0.664042987496E+03   -0.14185E-02   -0.82702E-02 14736   0.402E-01    0.146E+00
DAV:   7    -0.664063602361E+03   -0.20615E-01   -0.86896E-02 13200   0.290E-01    0.365E+00
DAV:   8    -0.664051531917E+03    0.12070E-01   -0.15845E-02 13344   0.205E-01    0.334E+00
DAV:   9    -0.664055304751E+03   -0.37728E-02   -0.11205E-01 13536   0.307E-01    0.589E+00
DAV:  10    -0.664047656217E+03    0.76485E-02   -0.53666E-02 12528   0.169E-01    0.501E+00
DAV:  11    -0.664045535892E+03    0.21203E-02   -0.30285E-02 12336   0.179E-01    0.241E+00
DAV:  12    -0.664070065379E+03   -0.24529E-01   -0.26418E-02 12960   0.181E-01    0.557E+00
DAV:  13    -0.664023644112E+03    0.46421E-01   -0.36294E-02 12720   0.208E-01    0.342E+00
DAV:  14    -0.664039929761E+03   -0.16286E-01   -0.22266E-02 12432   0.213E-01    0.245E+00
DAV:  15    -0.664044536676E+03   -0.46069E-02   -0.23195E-02 13344   0.195E-01    0.991E-01
DAV:  16    -0.664047625883E+03   -0.30892E-02   -0.23756E-02 12816   0.154E-01    0.597E-01
DAV:  17    -0.664048853917E+03   -0.12280E-02   -0.92937E-03 13392   0.117E-01    0.335E-01
DAV:  18    -0.664049655682E+03   -0.80176E-03   -0.30913E-03 14736   0.871E-02    0.304E-01
DAV:  19    -0.664049809015E+03   -0.15333E-03   -0.85715E-04 13296   0.472E-02    0.265E-01
DAV:  20    -0.664049754842E+03    0.54173E-04   -0.54160E-04 14496   0.350E-02    0.156E-01
DAV:  21    -0.664049805391E+03   -0.50549E-04   -0.29341E-04 14496   0.240E-02    0.121E-01
DAV:  22    -0.664049919787E+03   -0.11440E-03   -0.12243E-04 14832   0.152E-02    0.122E-01
DAV:  23    -0.664049976690E+03   -0.56903E-04   -0.33066E-05 14496   0.782E-03    0.116E-01
DAV:  24    -0.664050000124E+03   -0.23434E-04   -0.14047E-05 13104   0.469E-03    0.102E-01
DAV:  25    -0.664050000110E+03    0.14501E-07   -0.11955E-06  8496   0.227E-03
   3 F= -.66405000E+03 E0= -.66402455E+03  d E =-.701344E+01  mag=    20.7781
       N       E                     dE             d eps       ncg     rms          rms(c)
DAV:   1    -0.664791067806E+03   -0.74107E+00   -0.16735E+02 10992   0.187E+01    0.104E+01
DAV:   2    -0.669857882788E+03   -0.50668E+01   -0.43619E+01 15648   0.799E+00    0.503E+01
DAV:   3    -0.665031925291E+03    0.48260E+01   -0.13890E+02 17760   0.575E+00    0.108E+01
DAV:   4    -0.665270841225E+03   -0.23892E+00   -0.25090E+00 15792   0.259E+00    0.789E+00
DAV:   5    -0.665379220467E+03   -0.10838E+00   -0.88725E-01 16560   0.181E+00    0.596E+00
DAV:   6    -0.665382719126E+03   -0.34987E-02   -0.95219E-01 14208   0.143E+00    0.515E+00
DAV:   7    -0.665340087087E+03    0.42632E-01   -0.35800E-01 16080   0.115E+00    0.392E+00
DAV:   8    -0.665311555849E+03    0.28531E-01   -0.19025E-01 15600   0.881E-01    0.335E+00
DAV:   9    -0.665257982104E+03    0.53574E-01   -0.13817E-01 16272   0.675E-01    0.283E+00
DAV:  10    -0.665209683415E+03    0.48299E-01   -0.34196E-02 16416   0.549E-01    0.262E+00
DAV:  11    -0.665150147459E+03    0.59536E-01   -0.48856E-02 16944   0.560E-01    0.229E+00
DAV:  12    -0.665129767667E+03    0.20380E-01   -0.26273E-02 15024   0.368E-01    0.221E+00
DAV:  13    -0.665105024172E+03    0.24743E-01   -0.13866E-02 17520   0.343E-01    0.202E+00
DAV:  14    -0.665092469143E+03    0.12555E-01   -0.86046E-03 15984   0.292E-01    0.193E+00
DAV:  15    -0.665194042875E+03   -0.10157E+00   -0.83617E-01 15312   0.109E+00    0.985E+00
DAV:  16    -0.665180952318E+03    0.13091E-01   -0.48009E-02 13008   0.343E-01    0.994E+00
DAV:  17    -0.665167192654E+03    0.13760E-01   -0.42700E-03 17760   0.106E-01    0.996E+00
DAV:  18    -0.665165058847E+03    0.21338E-02   -0.65301E-04 16320   0.343E-02    0.100E+01
DAV:  19    -0.665165226493E+03   -0.16765E-03   -0.10293E-03 14160   0.262E-02    0.101E+01
DAV:  20    -0.665170007996E+03   -0.47815E-02   -0.17667E-03 12960   0.331E-02    0.103E+01
DAV:  21    -0.665168081534E+03    0.19265E-02   -0.32465E-04 12000   0.261E-02    0.103E+01
DAV:  22    -0.665165415552E+03    0.26660E-02   -0.18049E-04 13248   0.162E-02    0.102E+01
DAV:  23    -0.665167082088E+03   -0.16665E-02   -0.43497E-05 12864   0.109E-02    0.103E+01
DAV:  24    -0.665167546340E+03   -0.46425E-03   -0.13413E-03 14496   0.207E-02    0.104E+01
DAV:  25    -0.665165577912E+03    0.19684E-02   -0.12429E-04 11376   0.145E-02    0.103E+01
DAV:  26    -0.665167569356E+03   -0.19914E-02   -0.14686E-03 13920   0.258E-02    0.104E+01
DAV:  27    -0.665170225888E+03   -0.26565E-02   -0.19288E-04 13392   0.187E-02    0.105E+01
DAV:  28    -0.665160064692E+03    0.10161E-01   -0.67664E-04 14160   0.287E-02    0.101E+01
DAV:  29    -0.665171529986E+03   -0.11465E-01   -0.66877E-04 13440   0.311E-02    0.105E+01
DAV:  30    -0.665169311241E+03    0.22187E-02   -0.13918E-04 12144   0.139E-02    0.105E+01
DAV:  31    -0.665169299284E+03    0.11956E-04   -0.14589E-05 11664   0.554E-03    0.105E+01
DAV:  32    -0.665167828950E+03    0.14703E-02   -0.52536E-05 11328   0.640E-03    0.105E+01
DAV:  33    -0.665172937380E+03   -0.51084E-02   -0.25058E-04 13680   0.171E-02    0.107E+01
DAV:  34    -0.665172757758E+03    0.17962E-03   -0.19886E-03 14208   0.272E-02    0.109E+01
DAV:  35    -0.665174415704E+03   -0.16579E-02   -0.21803E-04 11760   0.213E-02    0.110E+01
DAV:  36    -0.665192535394E+03   -0.18120E-01   -0.56417E-03 15216   0.644E-02    0.119E+01
DAV:  37    -0.665171244333E+03    0.21291E-01   -0.27064E-03 12576   0.547E-02    0.114E+01
DAV:  38    -0.665175983577E+03   -0.47392E-02   -0.45715E-04 11856   0.278E-02    0.115E+01
DAV:  39    -0.665178657074E+03   -0.26735E-02   -0.77768E-04 14880   0.233E-02    0.116E+01
DAV:  40    -0.665183905449E+03   -0.52484E-02   -0.78889E-04 14592   0.264E-02    0.119E+01
DAV:  41    -0.665181389870E+03    0.25156E-02   -0.13666E-04 11568   0.164E-02    0.119E+01
DAV:  42    -0.665200527549E+03   -0.19138E-01   -0.24031E-03 14592   0.515E-02    0.126E+01
DAV:  43    -0.665213190078E+03   -0.12663E-01   -0.41157E-03 14016   0.579E-02    0.132E+01
DAV:  44    -0.665238121639E+03   -0.24932E-01   -0.69343E-03 13344   0.793E-02    0.141E+01
DAV:  45    -0.665233485366E+03    0.46363E-02   -0.33635E-03 12624   0.549E-02    0.141E+01
DAV:  46    -0.665240910678E+03   -0.74253E-02   -0.87839E-04 12432   0.328E-02    0.144E+01
DAV:  47    -0.669014440004E+03   -0.37735E+01   -0.17497E+01 15552   0.220E+00    0.484E+01
DAV:  48    -0.664722947125E+03    0.42915E+01   -0.23411E+01 15408   0.276E+00    0.670E+00
DAV:  49    -0.665060526880E+03   -0.33758E+00   -0.27335E-01 13536   0.581E-01    0.360E+00
DAV:  50    -0.665094237253E+03   -0.33710E-01   -0.34216E-02 12576   0.344E-01    0.253E+00
DAV:  51    -0.665110477796E+03   -0.16241E-01   -0.15159E-02 13776   0.184E-01    0.264E+00
DAV:  52    -0.665148291819E+03   -0.37814E-01   -0.22320E-02 15024   0.232E-01    0.450E+00
DAV:  53    -0.665168164337E+03   -0.19873E-01   -0.17173E-02 14832   0.168E-01    0.593E+00
DAV:  54    -0.665178843728E+03   -0.10679E-01   -0.11617E-02 13440   0.127E-01    0.740E+00
DAV:  55    -0.665162850669E+03    0.15993E-01   -0.35665E-03 12144   0.832E-02    0.727E+00
DAV:  56    -0.665153945093E+03    0.89056E-02   -0.20639E-03 14976   0.586E-02    0.677E+00
DAV:  57    -0.665146718374E+03    0.72267E-02   -0.15692E-01 15456   0.468E-01    0.241E+00
DAV:  58    -0.665166633984E+03   -0.19916E-01   -0.17027E-02 12672   0.206E-01    0.217E+00
DAV:  59    -0.665171670926E+03   -0.50369E-02   -0.25536E-03 14448   0.819E-02    0.210E+00
DAV:  60    -0.665171324990E+03    0.34594E-03   -0.41053E-04 14976   0.330E-02    0.210E+00
DAV:  61    -0.665171496011E+03   -0.17102E-03   -0.65094E-05 18480   0.106E-02    0.210E+00
DAV:  62    -0.665166297659E+03    0.51984E-02   -0.90417E-03 13728   0.104E-01    0.194E+00
DAV:  63    -0.665167803913E+03   -0.15063E-02   -0.38786E-03 13536   0.836E-02    0.197E+00
DAV:  64    -0.665167042876E+03    0.76104E-03   -0.52274E-03 12864   0.904E-02    0.200E+00
DAV:  65    -0.665166689574E+03    0.35330E-03   -0.74860E-04 14256   0.395E-02    0.201E+00
DAV:  66    -0.665165106766E+03    0.15828E-02   -0.15304E-03 13776   0.425E-02    0.202E+00
DAV:  67    -0.665145328727E+03    0.19778E-01   -0.77372E-02 13248   0.274E-01    0.236E+00
DAV:  68    -0.665146664464E+03   -0.13357E-02   -0.39017E-03 12192   0.106E-01    0.244E+00
DAV:  69    -0.665148143430E+03   -0.14790E-02   -0.54148E-04 14592   0.314E-02    0.254E+00
DAV:  70    -0.665148603350E+03   -0.45992E-03   -0.79898E-05 14112   0.128E-02    0.256E+00
DAV:  71    -0.665150613831E+03   -0.20105E-02   -0.31469E-04 13872   0.174E-02    0.256E+00
DAV:  72    -0.665150231344E+03    0.38249E-03   -0.30137E-02 13104   0.175E-01    0.250E+00
DAV:  73    -0.665152850031E+03   -0.26187E-02   -0.38785E-03 13056   0.778E-02    0.266E+00
DAV:  74    -0.665152958965E+03   -0.10893E-03   -0.93890E-03 12288   0.905E-02    0.222E+00
DAV:  75    -0.665155618666E+03   -0.26597E-02   -0.78938E-03 13536   0.106E-01    0.217E+00
DAV:  76    -0.665155314845E+03    0.30382E-03   -0.12617E-03 11856   0.574E-02    0.219E+00
DAV:  77    -0.665169410327E+03   -0.14095E-01   -0.28056E-02 13920   0.181E-01    0.290E+00
DAV:  78    -0.665175362926E+03   -0.59526E-02   -0.14220E-02 12672   0.139E-01    0.239E+00
DAV:  79    -0.665177719562E+03   -0.23566E-02   -0.29901E-03 13776   0.818E-02    0.216E+00
DAV:  80    -0.665180418160E+03   -0.26986E-02   -0.33148E-03 13536   0.670E-02    0.211E+00
DAV:  81    -0.665190669927E+03   -0.10252E-01   -0.83706E-03 13968   0.108E-01    0.225E+00
DAV:  82    -0.665192113862E+03   -0.14439E-02   -0.76977E-03 13056   0.958E-02    0.226E+00
DAV:  83    -0.665192703582E+03   -0.58972E-03   -0.37233E-03 14160   0.719E-02    0.233E+00
DAV:  84    -0.665192613966E+03    0.89616E-04   -0.20456E-04 12624   0.268E-02    0.234E+00
DAV:  85    -0.665193174503E+03   -0.56054E-03   -0.57970E-05 17088   0.101E-02    0.237E+00
DAV:  86    -0.665194058009E+03   -0.88351E-03   -0.48050E-05 14112   0.822E-03    0.239E+00
DAV:  87    -0.665200331466E+03   -0.62735E-02   -0.71639E-03 13344   0.928E-02    0.261E+00
DAV:  88    -0.665202973232E+03   -0.26418E-02   -0.18501E-03 13392   0.545E-02    0.262E+00
DAV:  89    -0.665201655057E+03    0.13182E-02   -0.11549E-03 13584   0.339E-02    0.259E+00
DAV:  90    -0.665201230035E+03    0.42502E-03   -0.24671E-04 14448   0.163E-02
   4 F= -.66520123E+03 E0= -.66518266E+03  d E =-.816467E+01  mag=    21.4134
       N       E                     dE             d eps       ncg     rms          rms(c)
DAV:   1    -0.665471912923E+03   -0.27026E+00   -0.73521E+01 10512   0.118E+01    0.645E+00
DAV:   2    -0.669182872360E+03   -0.37110E+01   -0.30511E+01 16704   0.520E+00    0.442E+01
DAV:   3    -0.665736038152E+03    0.34468E+01   -0.69680E+01 17952   0.367E+00    0.759E+00
DAV:   4    -0.665981498056E+03   -0.24546E+00   -0.84935E-01 14784   0.145E+00    0.573E+00
DAV:   5    -0.666103304324E+03   -0.12181E+00   -0.36188E-01 16464   0.128E+00    0.509E+00
DAV:   6    -0.666159059131E+03   -0.55755E-01   -0.30750E-01 16752   0.985E-01    0.424E+00
DAV:   7    -0.666138556164E+03    0.20503E-01   -0.23687E-01 15984   0.756E-01    0.408E+00
DAV:   8    -0.666122632281E+03    0.15924E-01   -0.71410E-02 14880   0.454E-01    0.354E+00
DAV:   9    -0.666086649340E+03    0.35983E-01   -0.42237E-02 16080   0.378E-01    0.323E+00
DAV:  10    -0.666062432055E+03    0.24217E-01   -0.11831E-02 15792   0.222E-01    0.308E+00
DAV:  11    -0.666020143521E+03    0.42289E-01   -0.84100E-03 16608   0.285E-01    0.299E+00
DAV:  12    -0.665994188027E+03    0.25955E-01   -0.73657E-03 14640   0.191E-01    0.289E+00
DAV:  13    -0.665969210885E+03    0.24977E-01   -0.33435E-03 16800   0.183E-01    0.281E+00
DAV:  14    -0.665910587207E+03    0.58624E-01   -0.11883E-02 16128   0.388E-01    0.265E+00
DAV:  15    -0.665808110411E+03    0.10248E+00   -0.49973E-02 15984   0.743E-01    0.232E+00
DAV:  16    -0.665802123577E+03    0.59868E-02   -0.29945E-02 13440   0.228E-01    0.221E+00
DAV:  17    -0.665779019249E+03    0.23104E-01   -0.72718E-03 17376   0.212E-01    0.228E+00
DAV:  18    -0.665759027459E+03    0.19992E-01   -0.35150E-02 16368   0.410E-01    0.445E+00
DAV:  19    -0.665758109021E+03    0.91844E-03   -0.99251E-03 12816   0.155E-01    0.485E+00
DAV:  20    -0.665750009702E+03    0.80993E-02   -0.93057E-03 16368   0.139E-01    0.564E+00
DAV:  21    -0.665737309839E+03    0.12700E-01   -0.56188E-03 14832   0.917E-02    0.515E+00
DAV:  22    -0.665739510749E+03   -0.22009E-02   -0.25690E-03 15360   0.493E-02    0.506E+00
DAV:  23    -0.665738931101E+03    0.57965E-03   -0.91829E-03 15168   0.135E-01    0.421E+00
DAV:  24    -0.665742679184E+03   -0.37481E-02   -0.34724E-03 13248   0.950E-02    0.473E+00
DAV:  25    -0.665738583480E+03    0.40957E-02   -0.34746E-04 14064   0.321E-02    0.469E+00
DAV:  26    -0.665740254224E+03   -0.16707E-02   -0.40774E-03 14592   0.795E-02    0.509E+00
DAV:  27    -0.665732443132E+03    0.78111E-02   -0.83849E-03 14880   0.125E-01    0.397E+00
DAV:  28    -0.665728415516E+03    0.40276E-02   -0.28950E-02 13632   0.211E-01    0.303E+00
DAV:  29    -0.665732220587E+03   -0.38051E-02   -0.44400E-03 13584   0.113E-01    0.305E+00
DAV:  30    -0.665731624992E+03    0.59559E-03   -0.66070E-04 13536   0.458E-02    0.300E+00
DAV:  31    -0.665731678558E+03   -0.53566E-04   -0.22593E-04 16368   0.214E-02    0.300E+00
DAV:  32    -0.665731567232E+03    0.11133E-03   -0.44060E-05 13872   0.118E-02    0.299E+00
DAV:  33    -0.665731585300E+03   -0.18068E-04   -0.11802E-05 13632   0.469E-03    0.299E+00
DAV:  34    -0.665731313253E+03    0.27205E-03   -0.13123E-04 15120   0.168E-02    0.294E+00
DAV:  35    -0.665731167780E+03    0.14547E-03   -0.12746E-04 13584   0.146E-02    0.289E+00
DAV:  36    -0.665730458083E+03    0.70970E-03   -0.96740E-04 14400   0.367E-02    0.272E+00
DAV:  37    -0.665731438139E+03   -0.98006E-03   -0.15637E-03 13488   0.438E-02    0.258E+00
DAV:  38    -0.665732386237E+03   -0.94810E-03   -0.36161E-04 13152   0.272E-02    0.256E+00
DAV:  39    -0.665739493914E+03   -0.71077E-02   -0.50836E-03 14640   0.121E-01    0.324E+00
DAV:  40    -0.665737522691E+03    0.19712E-02   -0.12443E-03 12240   0.520E-02    0.321E+00
DAV:  41    -0.665736421577E+03    0.11011E-02   -0.16591E-03 15216   0.490E-02    0.299E+00
DAV:  42    -0.665738080304E+03   -0.16587E-02   -0.36206E-04 12384   0.291E-02    0.306E+00
DAV:  43    -0.665736653135E+03    0.14272E-02   -0.75565E-05 12672   0.201E-02    0.295E+00
DAV:  44    -0.665739002601E+03   -0.23495E-02   -0.27720E-03 14208   0.578E-02    0.284E+00
DAV:  45    -0.665739786952E+03   -0.78435E-03   -0.50231E-04 12048   0.394E-02    0.290E+00
DAV:  46    -0.665740435279E+03   -0.64833E-03   -0.25767E-04 14352   0.190E-02    0.295E+00
DAV:  47    -0.665837663029E+03   -0.97228E-01   -0.20440E-01 15696   0.415E-01    0.906E+00
DAV:  48    -0.665811042032E+03    0.26621E-01   -0.14001E-02 11520   0.214E-01    0.923E+00
DAV:  49    -0.665802026146E+03    0.90159E-02   -0.18062E-03 15216   0.616E-02    0.914E+00
DAV:  50    -0.665812172030E+03   -0.10146E-01   -0.11503E-03 16752   0.323E-02    0.970E+00
DAV:  51    -0.665811259480E+03    0.91255E-03   -0.33158E-04 14016   0.214E-02    0.975E+00
DAV:  52    -0.665837378698E+03   -0.26119E-01   -0.14682E-02 14400   0.103E-01    0.109E+01
DAV:  53    -0.665824240858E+03    0.13138E-01   -0.24843E-03 11472   0.687E-02    0.106E+01
DAV:  54    -0.665828557001E+03   -0.43161E-02   -0.30008E-03 14208   0.411E-02    0.107E+01
DAV:  55    -0.665826371027E+03    0.21860E-02   -0.93490E-03 14448   0.511E-02    0.106E+01
DAV:  56    -0.665839115071E+03   -0.12744E-01   -0.36034E-03 12960   0.480E-02    0.112E+01
DAV:  57    -0.665689863556E+03    0.14925E+00   -0.50710E-01 15840   0.641E-01    0.285E+00
DAV:  58    -0.665727385588E+03   -0.37522E-01   -0.30535E-02 12192   0.277E-01    0.204E+00
DAV:  59    -0.665731670720E+03   -0.42851E-02   -0.16450E-02 14496   0.164E-01    0.127E+00
DAV:  60    -0.665733651440E+03   -0.19807E-02   -0.38645E-03 14544   0.973E-02    0.974E-01
DAV:  61    -0.665734740324E+03   -0.10889E-02   -0.12200E-03 14592   0.555E-02    0.849E-01
DAV:  62    -0.665734998848E+03   -0.25852E-03   -0.20612E-02 13536   0.198E-01    0.850E-01
DAV:  63    -0.665735356653E+03   -0.35780E-03   -0.30891E-03 13248   0.959E-02    0.813E-01
DAV:  64    -0.665735130663E+03    0.22599E-03   -0.83389E-04 14880   0.444E-02    0.726E-01
DAV:  65    -0.665734077552E+03    0.10531E-02   -0.10072E-03 14496   0.467E-02    0.644E-01
DAV:  66    -0.665733864216E+03    0.21334E-03   -0.32407E-04 14592   0.286E-02    0.642E-01
DAV:  67    -0.665734248443E+03   -0.38423E-03   -0.22324E-04 13344   0.217E-02    0.626E-01
DAV:  68    -0.665735332234E+03   -0.10838E-02   -0.29437E-04 14016   0.290E-02    0.626E-01
DAV:  69    -0.665737685496E+03   -0.23533E-02   -0.16119E-03 13536   0.603E-02    0.723E-01
DAV:  70    -0.665739324718E+03   -0.16392E-02   -0.22594E-03 13632   0.650E-02    0.728E-01
DAV:  71    -0.665740080779E+03   -0.75606E-03   -0.67355E-04 13392   0.341E-02    0.711E-01
DAV:  72    -0.665741721237E+03   -0.16405E-02   -0.25168E-03 13872   0.742E-02    0.819E-01
DAV:  73    -0.665741578949E+03    0.14229E-03   -0.25947E-04 13680   0.281E-02    0.822E-01
DAV:  74    -0.665741819892E+03   -0.24094E-03   -0.12230E-04 15120   0.132E-02    0.834E-01
DAV:  75    -0.665742085521E+03   -0.26563E-03   -0.11562E-04 13776   0.150E-02    0.852E-01
DAV:  76    -0.665742887288E+03   -0.80177E-03   -0.43922E-04 13152   0.241E-02    0.907E-01
DAV:  77    -0.665744212458E+03   -0.13252E-02   -0.19186E-03 13200   0.511E-02    0.855E-01
DAV:  78    -0.665745018096E+03   -0.80564E-03   -0.12528E-03 12336   0.440E-02    0.811E-01
DAV:  79    -0.665745480756E+03   -0.46266E-03   -0.40643E-04 13104   0.277E-02    0.797E-01
DAV:  80    -0.665745948639E+03   -0.46788E-03   -0.48509E-04 14208   0.279E-02    0.814E-01
DAV:  81    -0.665746200608E+03   -0.25197E-03   -0.34098E-04 13344   0.228E-02    0.812E-01
DAV:  82    -0.665746950598E+03   -0.74999E-03   -0.30952E-03 13344   0.609E-02    0.769E-01
DAV:  83    -0.665746932564E+03    0.18034E-04   -0.20403E-04 13968   0.267E-02    0.754E-01
DAV:  84    -0.665746645017E+03    0.28755E-03   -0.19030E-04 13776   0.188E-02    0.713E-01
DAV:  85    -0.665745560408E+03    0.10846E-02   -0.23413E-03 13392   0.589E-02    0.558E-01
DAV:  86    -0.665746158270E+03   -0.59786E-03   -0.24162E-03 12720   0.619E-02    0.534E-01
DAV:  87    -0.665746630057E+03   -0.47179E-03   -0.20882E-03 13872   0.560E-02    0.532E-01
DAV:  88    -0.665746746000E+03   -0.11594E-03   -0.43694E-04 13488   0.266E-02    0.527E-01
DAV:  89    -0.665746571750E+03    0.17425E-03   -0.24966E-04 12768   0.180E-02    0.513E-01
DAV:  90    -0.665746465732E+03    0.10602E-03   -0.47132E-04 13344   0.243E-02
   5 F= -.66574647E+03 E0= -.66572015E+03  d E =-.870991E+01  mag=    21.1873
       N       E                     dE             d eps       ncg     rms          rms(c)
DAV:   1    -0.665797257477E+03   -0.50686E-01   -0.18215E+01 10080   0.580E+00    0.368E+00
DAV:   2    -0.665987307385E+03   -0.19005E+00   -0.21472E+00 15888   0.230E+00    0.963E+00
DAV:   3    -0.665955804181E+03    0.31503E-01   -0.63546E+00 17184   0.158E+00    0.476E+00
DAV:   4    -0.665958289920E+03   -0.24857E-02   -0.15233E-01 15216   0.745E-01    0.388E+00
DAV:   5    -0.665954645414E+03    0.36445E-02   -0.21614E-01 16848   0.730E-01    0.299E+00
DAV:   6    -0.665910823275E+03    0.43822E-01   -0.13032E-01 15408   0.593E-01    0.222E+00
DAV:   7    -0.665911649465E+03   -0.82619E-03   -0.74551E-02 14112   0.454E-01    0.241E+00
DAV:   8    -0.665899372853E+03    0.12277E-01   -0.30083E-02 15792   0.308E-01    0.181E+00
DAV:   9    -0.665892512365E+03    0.68605E-02   -0.12819E-02 13968   0.176E-01    0.147E+00
DAV:  10    -0.665889947344E+03    0.25650E-02   -0.52797E-03 14784   0.128E-01    0.144E+00
DAV:  11    -0.665889661622E+03    0.28572E-03   -0.92915E-04 14112   0.514E-02    0.142E+00
DAV:  12    -0.665887425948E+03    0.22357E-02   -0.11330E-03 14304   0.537E-02    0.131E+00
DAV:  13    -0.665886533882E+03    0.89207E-03   -0.70572E-04 15120   0.418E-02    0.124E+00
DAV:  14    -0.665880350877E+03    0.61830E-02   -0.15186E-02 15264   0.147E-01    0.106E+00
DAV:  15    -0.665878687424E+03    0.16635E-02   -0.87060E-03 14592   0.100E-01    0.786E-01
DAV:  16    -0.665878370510E+03    0.31691E-03   -0.43037E-03 14352   0.815E-02    0.533E-01
DAV:  17    -0.665878652657E+03   -0.28215E-03   -0.10039E-03 15168   0.417E-02    0.486E-01
DAV:  18    -0.665878707859E+03   -0.55202E-04   -0.35729E-04 15456   0.268E-02    0.449E-01
DAV:  19    -0.665878880862E+03   -0.17300E-03   -0.23466E-03 14400   0.683E-02    0.381E-01
DAV:  20    -0.665878913460E+03   -0.32597E-04   -0.81393E-04 13296   0.415E-02    0.354E-01
DAV:  21    -0.665878897751E+03    0.15709E-04   -0.12432E-03 14256   0.386E-02    0.265E-01
DAV:  22    -0.665879037155E+03   -0.13940E-03   -0.88987E-04 13344   0.372E-02    0.226E-01
DAV:  23    -0.665879149714E+03   -0.11256E-03   -0.11727E-03 13728   0.409E-02    0.158E-01
DAV:  24    -0.665879338295E+03   -0.18858E-03   -0.68695E-04 13488   0.351E-02    0.159E-01
DAV:  25    -0.665879601718E+03   -0.26342E-03   -0.73782E-04 13824   0.321E-02    0.905E-02
DAV:  26    -0.665879857266E+03   -0.25555E-03   -0.30285E-04 14400   0.233E-02    0.807E-02
DAV:  27    -0.665880077555E+03   -0.22029E-03   -0.40045E-04 13296   0.241E-02    0.634E-02
DAV:  28    -0.665880215539E+03   -0.13798E-03   -0.31894E-04 14016   0.227E-02    0.511E-02
DAV:  29    -0.665880282892E+03   -0.67353E-04   -0.20950E-04 13680   0.187E-02    0.333E-02
DAV:  30    -0.665880326201E+03   -0.43309E-04   -0.59297E-05 14736   0.111E-02    0.335E-02
DAV:  31    -0.665880349868E+03   -0.23667E-04   -0.27284E-05 14544   0.724E-03    0.276E-02
DAV:  32    -0.665880369896E+03   -0.20027E-04   -0.12310E-05 11568   0.487E-03    0.233E-02
DAV:  33    -0.665880415110E+03   -0.45214E-04   -0.16617E-05 11376   0.457E-03    0.242E-02
DAV:  34    -0.665880469067E+03   -0.53957E-04   -0.26443E-05 12816   0.561E-03    0.183E-02
DAV:  35    -0.665880544513E+03   -0.75446E-04   -0.44829E-05 12816   0.706E-03    0.146E-02
DAV:  36    -0.665880616296E+03   -0.71783E-04   -0.88595E-05 12528   0.892E-03    0.195E-02
DAV:  37    -0.665880646347E+03   -0.30051E-04   -0.38321E-05 12336   0.649E-03    0.128E-02
DAV:  38    -0.665880652857E+03   -0.65108E-05   -0.34083E-05 12384   0.576E-03    0.118E-02
DAV:  39    -0.665880646006E+03    0.68512E-05   -0.13246E-05 12192   0.385E-03    0.876E-03
DAV:  40    -0.665880641028E+03    0.49786E-05   -0.56139E-06  9264   0.231E-03    0.879E-03
DAV:  41    -0.665880636827E+03    0.42005E-05   -0.24199E-06  8688   0.172E-03    0.805E-03
DAV:  42    -0.665880635437E+03    0.13904E-05   -0.53342E-07  6720   0.117E-03    0.812E-03
DAV:  43    -0.665880631814E+03    0.36226E-05   -0.30989E-06  8880   0.177E-03    0.823E-03
DAV:  44    -0.665880621079E+03    0.10735E-04   -0.36670E-05 11952   0.507E-03    0.659E-03
DAV:  45    -0.665880623792E+03   -0.27121E-05   -0.20941E-05 10752   0.378E-03    0.708E-03
DAV:  46    -0.665880628058E+03   -0.42666E-05   -0.85612E-06  9648   0.273E-03    0.551E-03
DAV:  47    -0.665880627731E+03    0.32697E-06   -0.65997E-06  9504   0.227E-03
   6 F= -.66588063E+03 E0= -.66585635E+03  d E =-.884407E+01  mag=    21.0453
       N       E                     dE             d eps       ncg     rms          rms(c)
DAV:   1    -0.665887811113E+03   -0.71831E-02   -0.45460E+00 10080   0.290E+00    0.206E+00
DAV:   2    -0.665924552415E+03   -0.36741E-01   -0.46919E-01 16080   0.114E+00    0.327E+00
DAV:   3    -0.665918587259E+03    0.59652E-02   -0.62520E-01 17136   0.801E-01    0.279E+00
DAV:   4    -0.665914611932E+03    0.39753E-02   -0.58082E-02 16128   0.424E-01    0.218E+00
DAV:   5    -0.665912020528E+03    0.25914E-02   -0.53438E-02 17184   0.348E-01    0.168E+00
DAV:   6    -0.665906563199E+03    0.54573E-02   -0.38761E-02 15792   0.321E-01    0.101E+00
DAV:   7    -0.665906195091E+03    0.36811E-03   -0.15619E-02 15600   0.224E-01    0.630E-01
DAV:   8    -0.665906191311E+03    0.37801E-05   -0.53711E-03 13680   0.110E-01    0.473E-01
DAV:   9    -0.665906046853E+03    0.14446E-03   -0.13321E-03 15744   0.669E-02    0.362E-01
DAV:  10    -0.665906152909E+03   -0.10606E-03   -0.75146E-04 15504   0.409E-02    0.331E-01
DAV:  11    -0.665906174266E+03   -0.21357E-04   -0.73588E-04 16272   0.362E-02    0.313E-01
DAV:  12    -0.665906133957E+03    0.40309E-04   -0.68138E-04 15696   0.318E-02    0.253E-01
DAV:  13    -0.665906139127E+03   -0.51701E-05   -0.29287E-04 14976   0.216E-02    0.191E-01
DAV:  14    -0.665906254489E+03   -0.11536E-03   -0.30094E-04 16080   0.241E-02    0.147E-01
DAV:  15    -0.665906361767E+03   -0.10728E-03   -0.26497E-04 14592   0.206E-02    0.117E-01
DAV:  16    -0.665906438828E+03   -0.77062E-04   -0.20673E-04 14016   0.184E-02    0.871E-02
DAV:  17    -0.665906505454E+03   -0.66626E-04   -0.15135E-04 14112   0.157E-02    0.637E-02
DAV:  18    -0.665906522786E+03   -0.17332E-04   -0.10196E-04 13872   0.119E-02    0.591E-02
DAV:  19    -0.665906501820E+03    0.20966E-04   -0.14485E-04 13680   0.130E-02    0.543E-02
DAV:  20    -0.665906459381E+03    0.42439E-04   -0.15763E-04 13968   0.135E-02    0.414E-02
DAV:  21    -0.665906430592E+03    0.28789E-04   -0.12971E-04 14304   0.124E-02    0.377E-02
DAV:  22    -0.665906407841E+03    0.22751E-04   -0.16794E-04 13920   0.134E-02    0.306E-02
DAV:  23    -0.665906431710E+03   -0.23869E-04   -0.46523E-05 14880   0.835E-03    0.330E-02
DAV:  24    -0.665906446702E+03   -0.14992E-04   -0.35363E-05 13776   0.636E-03    0.250E-02
DAV:  25    -0.665906472527E+03   -0.25825E-04   -0.34499E-05 14016   0.640E-03    0.236E-02
DAV:  26    -0.665906503532E+03   -0.31005E-04   -0.49700E-05 13632   0.708E-03    0.213E-02
DAV:  27    -0.665906539291E+03   -0.35759E-04   -0.89144E-05 13968   0.958E-03    0.215E-02
DAV:  28    -0.665906577252E+03   -0.37962E-04   -0.39659E-05 14256   0.686E-03    0.145E-02
DAV:  29    -0.665906619747E+03   -0.42494E-04   -0.91386E-05 13584   0.928E-03    0.131E-02
DAV:  30    -0.665906671470E+03   -0.51723E-04   -0.82932E-05 14064   0.941E-03    0.103E-02
DAV:  31    -0.665906710427E+03   -0.38957E-04   -0.60028E-05 13632   0.760E-03    0.949E-03
DAV:  32    -0.665906726419E+03   -0.15991E-04   -0.98736E-05 13776   0.100E-02    0.916E-03
DAV:  33    -0.665906739374E+03   -0.12955E-04   -0.87417E-06 13008   0.458E-03    0.857E-03
DAV:  34    -0.665906740587E+03   -0.12130E-05   -0.67232E-06 11088   0.274E-03    0.659E-03
DAV:  35    -0.665906742607E+03   -0.20200E-05   -0.18923E-05 13008   0.439E-03    0.623E-03
DAV:  36    -0.665906743302E+03   -0.69472E-06   -0.22920E-05 13344   0.477E-03    0.735E-03
DAV:  37    -0.665906745461E+03   -0.21590E-05   -0.32935E-06  9840   0.237E-03    0.727E-03
DAV:  38    -0.665906745802E+03   -0.34155E-06   -0.96815E-07  6528   0.162E-03
   7 F= -.66590675E+03 E0= -.66588193E+03  d E =-.887019E+01  mag=    20.9643
       N       E                     dE             d eps       ncg     rms          rms(c)
DAV:   1    -0.665491153250E+03    0.41559E+00   -0.18276E+02  9600   0.195E+01    0.864E+00
DAV:   2    -0.666240408920E+03   -0.74926E+00   -0.94119E+00 15360   0.628E+00    0.133E+01
DAV:   3    -0.666119409968E+03    0.12100E+00   -0.24277E+00 16656   0.244E+00    0.961E+00
DAV:   4    -0.666076464877E+03    0.42945E-01   -0.56932E-01 17376   0.128E+00    0.737E+00
DAV:   5    -0.666198896494E+03   -0.12243E+00   -0.15154E+00 15216   0.167E+00    0.917E+00
DAV:   6    -0.666187274564E+03    0.11622E-01   -0.45977E+00 16080   0.171E+00    0.627E+00
DAV:   7    -0.666086982863E+03    0.10029E+00   -0.12337E+00 14880   0.163E+00    0.389E+00
DAV:   8    -0.666078073501E+03    0.89094E-02   -0.59911E-01 14256   0.114E+00    0.217E+00
DAV:   9    -0.666082482343E+03   -0.44088E-02   -0.19214E-01 13296   0.673E-01    0.226E+00
DAV:  10    -0.666067706553E+03    0.14776E-01   -0.55044E-02 13824   0.447E-01    0.109E+00
DAV:  11    -0.666062659959E+03    0.50466E-02   -0.21398E-02 14448   0.254E-01    0.555E-01
DAV:  12    -0.666067725266E+03   -0.50653E-02   -0.13858E-02 15072   0.181E-01    0.543E-01
DAV:  13    -0.666075505802E+03   -0.77805E-02   -0.92829E-03 14304   0.139E-01    0.813E-01
DAV:  14    -0.666079878669E+03   -0.43729E-02   -0.67151E-03 14112   0.111E-01    0.417E-01
DAV:  15    -0.666082934933E+03   -0.30563E-02   -0.10804E-03 12384   0.567E-02    0.412E-01
DAV:  16    -0.666083527678E+03   -0.59274E-03   -0.18888E-04 17568   0.208E-02    0.403E-01
DAV:  17    -0.666084699390E+03   -0.11717E-02   -0.14822E-04 14784   0.151E-02    0.417E-01
DAV:  18    -0.666083464108E+03    0.12353E-02   -0.17166E-04 13680   0.159E-02    0.417E-01
DAV:  19    -0.666082016641E+03    0.14475E-02   -0.21080E-04 14112   0.162E-02    0.414E-01
DAV:  20    -0.666090597088E+03   -0.85804E-02   -0.55806E-03 13584   0.745E-02    0.466E-01
DAV:  21    -0.666099183256E+03   -0.85862E-02   -0.10592E-02 14400   0.103E-01    0.534E-01
DAV:  22    -0.666103374838E+03   -0.41916E-02   -0.31081E-03 14784   0.649E-02    0.557E-01
DAV:  23    -0.666102350622E+03    0.10242E-02   -0.55761E-04 13536   0.335E-02    0.546E-01
DAV:  24    -0.666102416363E+03   -0.65741E-04   -0.33043E-05 13488   0.916E-03    0.541E-01
DAV:  25    -0.666106943252E+03   -0.45269E-02   -0.61911E-03 14304   0.937E-02    0.465E-01
DAV:  26    -0.666111281800E+03   -0.43385E-02   -0.63524E-03 14304   0.110E-01    0.311E-01
DAV:  27    -0.666111717374E+03   -0.43557E-03   -0.16234E-03 13248   0.560E-02    0.179E-01
DAV:  28    -0.666114254377E+03   -0.25370E-02   -0.93447E-04 14736   0.430E-02    0.183E-01
DAV:  29    -0.666115480912E+03   -0.12265E-02   -0.56339E-04 15360   0.338E-02    0.147E-01
DAV:  30    -0.666116513924E+03   -0.10330E-02   -0.72820E-04 14496   0.345E-02    0.932E-02
DAV:  31    -0.666117666935E+03   -0.11530E-02   -0.23681E-04 13440   0.219E-02    0.718E-02
DAV:  32    -0.666118319584E+03   -0.65265E-03   -0.13550E-04 14736   0.172E-02    0.541E-02
DAV:  33    -0.666119251807E+03   -0.93222E-03   -0.10702E-04 14160   0.133E-02    0.524E-02
DAV:  34    -0.666119749768E+03   -0.49796E-03   -0.14487E-04 14448   0.161E-02    0.387E-02
DAV:  35    -0.666120173469E+03   -0.42370E-03   -0.32987E-05 12672   0.778E-03    0.414E-02
DAV:  36    -0.666120297681E+03   -0.12421E-03   -0.31090E-05 13584   0.608E-03    0.275E-02
DAV:  37    -0.666120478819E+03   -0.18114E-03   -0.21090E-05 12576   0.509E-03    0.201E-02
DAV:  38    -0.666120638731E+03   -0.15991E-03   -0.27531E-05 12768   0.547E-03    0.155E-02
DAV:  39    -0.666120775814E+03   -0.13708E-03   -0.94347E-06 11520   0.393E-03    0.111E-02
DAV:  40    -0.666120927470E+03   -0.15166E-03   -0.12272E-05 11184   0.387E-03    0.929E-03
DAV:  41    -0.666121021841E+03   -0.94371E-04   -0.56031E-06  9648   0.284E-03    0.623E-03
DAV:  42    -0.666121086414E+03   -0.64573E-04   -0.28966E-06  8256   0.234E-03    0.725E-03
DAV:  43    -0.666121127582E+03   -0.41168E-04   -0.23830E-06  7488   0.224E-03    0.527E-03
DAV:  44    -0.666121154486E+03   -0.26904E-04   -0.17751E-06  7584   0.206E-03    0.590E-03
DAV:  45    -0.666121173342E+03   -0.18856E-04   -0.13543E-06  7104   0.196E-03    0.381E-03
DAV:  46    -0.666121181647E+03   -0.83042E-05   -0.95784E-07  7440   0.179E-03    0.306E-03
DAV:  47    -0.666121186252E+03   -0.46059E-05   -0.57219E-07  7104   0.149E-03    0.193E-03
DAV:  48    -0.666121190018E+03   -0.37658E-05   -0.42506E-07  6336   0.131E-03    0.218E-03
DAV:  49    -0.666121192515E+03   -0.24967E-05   -0.43268E-07  6624   0.125E-03    0.167E-03
DAV:  50    -0.666121193121E+03   -0.60602E-06   -0.19510E-07  6240   0.110E-03
   8 F= -.66612119E+03 E0= -.66609580E+03  d E =-.214447E+00  mag=    20.1399
       N       E                     dE             d eps       ncg     rms          rms(c)
DAV:   1    -0.666140236872E+03   -0.19044E-01   -0.17933E+01  9600   0.610E+00    0.300E+00
DAV:   2    -0.666211515358E+03   -0.71278E-01   -0.83569E-01 15360   0.192E+00    0.409E+00
DAV:   3    -0.666197820913E+03    0.13694E-01   -0.13985E-01 16080   0.800E-01    0.301E+00
DAV:   4    -0.666197706710E+03    0.11420E-03   -0.54533E-02 18624   0.470E-01    0.256E+00
DAV:   5    -0.666196711651E+03    0.99506E-03   -0.72102E-02 15744   0.531E-01    0.204E+00
DAV:   6    -0.666199984417E+03   -0.32728E-02   -0.16656E-01 15936   0.536E-01    0.155E+00
DAV:   7    -0.666194278337E+03    0.57061E-02   -0.60373E-02 15984   0.319E-01    0.639E-01
DAV:   8    -0.666194752367E+03   -0.47403E-03   -0.15958E-02 15312   0.159E-01    0.395E-01
DAV:   9    -0.666195885123E+03   -0.11328E-02   -0.47355E-03 15504   0.117E-01    0.305E-01
DAV:  10    -0.666196740822E+03   -0.85570E-03   -0.14623E-03 15456   0.678E-02    0.228E-01
DAV:  11    -0.666197534219E+03   -0.79340E-03   -0.12959E-03 14592   0.512E-02    0.262E-01
DAV:  12    -0.666197901762E+03   -0.36754E-03   -0.36128E-04 15408   0.348E-02    0.195E-01
DAV:  13    -0.666198128170E+03   -0.22641E-03   -0.20576E-04 15888   0.258E-02    0.157E-01
DAV:  14    -0.666198313271E+03   -0.18510E-03   -0.11151E-04 15264   0.164E-02    0.133E-01
DAV:  15    -0.666198509092E+03   -0.19582E-03   -0.94579E-05 15888   0.150E-02    0.114E-01
DAV:  16    -0.666198700679E+03   -0.19159E-03   -0.10866E-04 14688   0.167E-02    0.799E-02
DAV:  17    -0.666198793094E+03   -0.92415E-04   -0.56698E-05 15120   0.144E-02    0.420E-02
DAV:  18    -0.666198838519E+03   -0.45425E-04   -0.16019E-05 13776   0.747E-03    0.181E-02
DAV:  19    -0.666198861021E+03   -0.22502E-04   -0.46395E-06 10752   0.386E-03    0.899E-03
DAV:  20    -0.666198881474E+03   -0.20452E-04   -0.15418E-06  6816   0.262E-03    0.103E-02
DAV:  21    -0.666198906531E+03   -0.25057E-04   -0.13939E-06  7440   0.234E-03    0.353E-03
DAV:  22    -0.666198924620E+03   -0.18089E-04   -0.83662E-07  6672   0.186E-03    0.399E-03
DAV:  23    -0.666198934419E+03   -0.97989E-05   -0.42298E-07  6528   0.151E-03    0.284E-03
DAV:  24    -0.666198943045E+03   -0.86257E-05   -0.29638E-07  6432   0.115E-03    0.213E-03
DAV:  25    -0.666198951195E+03   -0.81507E-05   -0.20456E-07  6288   0.101E-03    0.149E-03
DAV:  26    -0.666198957221E+03   -0.60253E-05   -0.15443E-07  6240   0.873E-04    0.115E-03
DAV:  27    -0.666198966531E+03   -0.93108E-05   -0.24158E-07  6624   0.837E-04    0.109E-03
DAV:  28    -0.666198972309E+03   -0.57780E-05   -0.12813E-07  6240   0.801E-04    0.109E-03
DAV:  29    -0.666198977216E+03   -0.49065E-05   -0.13128E-07  6240   0.697E-04    0.784E-04
DAV:  30    -0.666198984111E+03   -0.68957E-05   -0.21496E-07  6528   0.754E-04    0.932E-04
DAV:  31    -0.666198987781E+03   -0.36691E-05   -0.11781E-07  6240   0.720E-04    0.692E-04
DAV:  32    -0.666198990531E+03   -0.27504E-05   -0.11443E-07  6240   0.650E-04    0.674E-04
DAV:  33    -0.666198992268E+03   -0.17374E-05   -0.92347E-08  6240   0.653E-04    0.629E-04
DAV:  34    -0.666198993344E+03   -0.10758E-05   -0.77089E-08  6240   0.571E-04    0.638E-04
DAV:  35    -0.666198993998E+03   -0.65407E-06   -0.60798E-08  6240   0.545E-04
   9 F= -.66619899E+03 E0= -.66617497E+03  d E =-.292248E+00  mag=    20.2047
       N       E                     dE             d eps       ncg     rms          rms(c)
DAV:   1    -0.666029610219E+03    0.16938E+00   -0.16411E+02  9600   0.195E+01    0.640E+00
DAV:   2    -0.666585570494E+03   -0.55596E+00   -0.65469E+00 15264   0.543E+00    0.788E+00
DAV:   3    -0.666558235901E+03    0.27335E-01   -0.80523E-01 17088   0.148E+00    0.608E+00
DAV:   4    -0.666557680719E+03    0.55518E-03   -0.14147E-01 16272   0.664E-01    0.499E+00
DAV:   5    -0.666664539299E+03   -0.10686E+00   -0.63117E-01 16752   0.126E+00    0.512E+00
DAV:   6    -0.666598748166E+03    0.65791E-01   -0.14255E+00 16032   0.163E+00    0.475E+00
DAV:   7    -0.666549756641E+03    0.48992E-01   -0.20214E-01 14880   0.976E-01    0.156E+00
DAV:   8    -0.666546530408E+03    0.32262E-02   -0.90879E-02 15312   0.457E-01    0.865E-01
DAV:   9    -0.666548936157E+03   -0.24057E-02   -0.18650E-02 14448   0.256E-01    0.780E-01
DAV:  10    -0.666548921735E+03    0.14423E-04   -0.56594E-03 15888   0.154E-01    0.451E-01
DAV:  11    -0.666549155858E+03   -0.23412E-03   -0.60224E-03 14784   0.119E-01    0.480E-01
DAV:  12    -0.666549835120E+03   -0.67926E-03   -0.35420E-03 15696   0.942E-02    0.351E-01
DAV:  13    -0.666549868570E+03   -0.33450E-04   -0.13294E-03 14784   0.624E-02    0.252E-01
DAV:  14    -0.666550010389E+03   -0.14182E-03   -0.56334E-04 15600   0.404E-02    0.148E-01
DAV:  15    -0.666550145146E+03   -0.13476E-03   -0.40883E-04 15984   0.335E-02    0.946E-02
DAV:  16    -0.666550443146E+03   -0.29800E-03   -0.12464E-04 15024   0.207E-02    0.818E-02
DAV:  17    -0.666550864336E+03   -0.42119E-03   -0.92687E-05 14928   0.151E-02    0.644E-02
DAV:  18    -0.666551352214E+03   -0.48788E-03   -0.58109E-05 14256   0.117E-02    0.457E-02
DAV:  19    -0.666551783177E+03   -0.43096E-03   -0.45324E-05 14256   0.929E-03    0.382E-02
DAV:  20    -0.666552099116E+03   -0.31594E-03   -0.25171E-05 14736   0.733E-03    0.205E-02
DAV:  21    -0.666552303696E+03   -0.20458E-03   -0.16664E-05 13392   0.529E-03    0.176E-02
DAV:  22    -0.666552426060E+03   -0.12236E-03   -0.81365E-06 11232   0.407E-03    0.120E-02
DAV:  23    -0.666552489026E+03   -0.62966E-04   -0.37626E-06  9072   0.296E-03    0.956E-03
DAV:  24    -0.666552541790E+03   -0.52764E-04   -0.36960E-06  9552   0.272E-03    0.701E-03
DAV:  25    -0.666552569668E+03   -0.27878E-04   -0.18912E-06  7728   0.229E-03    0.527E-03
DAV:  26    -0.666552598973E+03   -0.29305E-04   -0.23993E-06  8928   0.208E-03    0.610E-03
DAV:  27    -0.666552610608E+03   -0.11635E-04   -0.94596E-07  6672   0.181E-03    0.483E-03
DAV:  28    -0.666552620758E+03   -0.10150E-04   -0.90839E-07  7248   0.157E-03    0.314E-03
DAV:  29    -0.666552630857E+03   -0.10099E-04   -0.12001E-06  7872   0.167E-03    0.264E-03
DAV:  30    -0.666552637956E+03   -0.70993E-05   -0.13000E-06  8784   0.157E-03    0.284E-03
DAV:  31    -0.666552641398E+03   -0.34412E-05   -0.11155E-06  7968   0.146E-03    0.191E-03
DAV:  32    -0.666552641792E+03   -0.39426E-06   -0.70037E-07  6816   0.127E-03
  10 F= -.66655264E+03 E0= -.66652712E+03  d E =-.353648E+00  mag=    20.2184
       N       E                     dE             d eps       ncg     rms          rms(c)
DAV:   1    -0.666519754968E+03    0.32886E-01   -0.18907E+01  9600   0.662E+00    0.227E+00
DAV:   2    -0.666582118573E+03   -0.62364E-01   -0.72897E-01 15456   0.180E+00    0.277E+00
DAV:   3    -0.666579827903E+03    0.22907E-02   -0.56810E-02 16800   0.412E-01    0.233E+00
DAV:   4    -0.666584388029E+03   -0.45601E-02   -0.39175E-02 17712   0.335E-01    0.225E+00
DAV:   5    -0.666592439254E+03   -0.80512E-02   -0.10814E-01 16128   0.564E-01    0.254E+00
DAV:   6    -0.666584967659E+03    0.74716E-02   -0.23662E-01 16272   0.642E-01    0.204E+00
DAV:   7    -0.666577776661E+03    0.71910E-02   -0.61311E-02 15360   0.404E-01    0.706E-01
DAV:   8    -0.666578162249E+03   -0.38559E-03   -0.86045E-03 14928   0.158E-01    0.341E-01
DAV:   9    -0.666578139555E+03    0.22694E-04   -0.24332E-03 14592   0.848E-02    0.231E-01
DAV:  10    -0.666578017056E+03    0.12250E-03   -0.72926E-04 14832   0.525E-02    0.169E-01
DAV:  11    -0.666577917250E+03    0.99805E-04   -0.81349E-04 14208   0.466E-02    0.320E-01
DAV:  12    -0.666577853138E+03    0.64112E-04   -0.42304E-04 14208   0.390E-02    0.159E-01
DAV:  13    -0.666577950709E+03   -0.97571E-04   -0.27623E-04 12864   0.307E-02    0.141E-01
DAV:  14    -0.666577956820E+03   -0.61111E-05   -0.13331E-04 15360   0.204E-02    0.515E-02
DAV:  15    -0.666578052297E+03   -0.95476E-04   -0.38982E-05 12864   0.124E-02    0.215E-02
DAV:  16    -0.666578122302E+03   -0.70005E-04   -0.21102E-05 15024   0.734E-03    0.227E-02
DAV:  17    -0.666578200801E+03   -0.78499E-04   -0.89090E-06 12240   0.495E-03    0.251E-02
DAV:  18    -0.666578269337E+03   -0.68536E-04   -0.95923E-06 10848   0.459E-03    0.215E-02
DAV:  19    -0.666578308763E+03   -0.39426E-04   -0.35343E-06  9696   0.335E-03    0.165E-02
DAV:  20    -0.666578355020E+03   -0.46257E-04   -0.51605E-06 10464   0.308E-03    0.103E-02
DAV:  21    -0.666578383273E+03   -0.28252E-04   -0.26512E-06  8304   0.260E-03    0.805E-03
DAV:  22    -0.666578399460E+03   -0.16187E-04   -0.16821E-06  7632   0.224E-03    0.637E-03
DAV:  23    -0.666578415618E+03   -0.16159E-04   -0.23171E-06  9792   0.226E-03    0.752E-03
DAV:  24    -0.666578423178E+03   -0.75598E-05   -0.13269E-06  7536   0.190E-03    0.376E-03
DAV:  25    -0.666578428634E+03   -0.54565E-05   -0.81429E-07  6960   0.160E-03    0.346E-03
DAV:  26    -0.666578432331E+03   -0.36965E-05   -0.71003E-07  6720   0.148E-03    0.267E-03
DAV:  27    -0.666578435357E+03   -0.30262E-05   -0.86385E-07  7488   0.145E-03    0.255E-03
DAV:  28    -0.666578436731E+03   -0.13745E-05   -0.52240E-07  6480   0.135E-03    0.228E-03
DAV:  29    -0.666578438434E+03   -0.17029E-05   -0.14779E-06  9120   0.148E-03    0.242E-03
DAV:  30    -0.666578438697E+03   -0.26270E-06   -0.11638E-06  7968   0.139E-03
  11 F= -.66657844E+03 E0= -.66655208E+03  d E =-.379445E+00  mag=    20.1962
       N       E                     dE             d eps       ncg     rms          rms(c)
DAV:   1    -0.666659034988E+03   -0.80597E-01   -0.66255E+01  9600   0.124E+01    0.398E+00
DAV:   2    -0.666864583451E+03   -0.20555E+00   -0.22860E+00 15072   0.287E+00    0.343E+00
DAV:   3    -0.666866698790E+03   -0.21153E-02   -0.50708E-01 18528   0.118E+00    0.323E+00
DAV:   4    -0.666853507761E+03    0.13191E-01   -0.11961E-01 16464   0.579E-01    0.160E+00
DAV:   5    -0.666858994403E+03   -0.54866E-02   -0.13609E-01 14688   0.618E-01    0.187E+00
DAV:   6    -0.666852931252E+03    0.60632E-02   -0.64572E-02 15744   0.475E-01    0.123E+00
DAV:   7    -0.666851438876E+03    0.14924E-02   -0.21636E-02 15504   0.263E-01    0.348E-01
DAV:   8    -0.666852100249E+03   -0.66137E-03   -0.86922E-03 13968   0.148E-01    0.615E-01
DAV:   9    -0.666852164067E+03   -0.63818E-04   -0.48213E-03 16560   0.111E-01    0.396E-01
DAV:  10    -0.666852590605E+03   -0.42654E-03   -0.18749E-03 14592   0.763E-02    0.470E-01
DAV:  11    -0.666852487334E+03    0.10327E-03   -0.11485E-03 14496   0.625E-02    0.408E-01
DAV:  12    -0.666852652584E+03   -0.16525E-03   -0.78445E-04 14064   0.522E-02    0.864E-02
DAV:  13    -0.666852923453E+03   -0.27087E-03   -0.21288E-04 13920   0.260E-02    0.757E-02
DAV:  14    -0.666853087127E+03   -0.16367E-03   -0.93870E-05 16416   0.156E-02    0.515E-02
DAV:  15    -0.666853233896E+03   -0.14677E-03   -0.33732E-05 15072   0.101E-02    0.383E-02
DAV:  16    -0.666853457433E+03   -0.22354E-03   -0.24912E-05 14016   0.759E-03    0.188E-02
DAV:  17    -0.666853597441E+03   -0.14001E-03   -0.13916E-05 14016   0.558E-03    0.255E-02
DAV:  18    -0.666853730021E+03   -0.13258E-03   -0.74193E-06 10704   0.441E-03    0.140E-02
DAV:  19    -0.666853828747E+03   -0.98726E-04   -0.41093E-06 10128   0.325E-03    0.105E-02
DAV:  20    -0.666853922568E+03   -0.93821E-04   -0.31869E-06  8400   0.261E-03    0.768E-03
DAV:  21    -0.666853996759E+03   -0.74191E-04   -0.24753E-06  8016   0.244E-03    0.564E-03
DAV:  22    -0.666854067525E+03   -0.70766E-04   -0.28344E-06  9744   0.234E-03    0.513E-03
DAV:  23    -0.666854120769E+03   -0.53243E-04   -0.25223E-06  8352   0.214E-03    0.450E-03
DAV:  24    -0.666854158494E+03   -0.37725E-04   -0.16068E-06  7440   0.182E-03    0.482E-03
DAV:  25    -0.666854194409E+03   -0.35915E-04   -0.23247E-06  8976   0.195E-03    0.323E-03
DAV:  26    -0.666854214259E+03   -0.19850E-04   -0.14542E-06  7776   0.162E-03    0.283E-03
DAV:  27    -0.666854223731E+03   -0.94725E-05   -0.92928E-07  6720   0.145E-03    0.273E-03
DAV:  28    -0.666854228906E+03   -0.51746E-05   -0.80485E-07  7008   0.140E-03    0.245E-03
DAV:  29    -0.666854229928E+03   -0.10225E-05   -0.13711E-06  9648   0.154E-03    0.268E-03
DAV:  30    -0.666854225998E+03    0.39301E-05   -0.16891E-06  8736   0.153E-03    0.259E-03
DAV:  31    -0.666854220617E+03    0.53814E-05   -0.22169E-06  8688   0.159E-03    0.241E-03
DAV:  32    -0.666854216412E+03    0.42050E-05   -0.16096E-06  8112   0.141E-03    0.231E-03
DAV:  33    -0.666854213861E+03    0.25509E-05   -0.84069E-07  7440   0.116E-03    0.215E-03
DAV:  34    -0.666854212737E+03    0.11241E-05   -0.31579E-07  6480   0.942E-04    0.208E-03
DAV:  35    -0.666854212106E+03    0.63060E-06   -0.30441E-07  6720   0.857E-04
  12 F= -.66685421E+03 E0= -.66682697E+03  d E =-.275773E+00  mag=    20.1721
       N       E                     dE             d eps       ncg     rms          rms(c)
DAV:   1    -0.666121349617E+03    0.73286E+00   -0.37392E+02 10464   0.296E+01    0.110E+01
DAV:   2    -0.668238199507E+03   -0.21168E+01   -0.33681E+01 14832   0.797E+00    0.106E+01
DAV:   3    -0.667331211746E+03    0.90699E+00   -0.55838E+00 16224   0.490E+00    0.918E+00
DAV:   4    -0.667272334199E+03    0.58878E-01   -0.37934E+00 14832   0.257E+00    0.678E+00
DAV:   5    -0.667184882155E+03    0.87452E-01   -0.14968E+00 16176   0.194E+00    0.762E+00
DAV:   6    -0.667142858646E+03    0.42024E-01   -0.13678E+00 15120   0.148E+00    0.402E+00
DAV:   7    -0.667162985034E+03   -0.20126E-01   -0.32513E-01 14160   0.866E-01    0.305E+00
DAV:   8    -0.667127240628E+03    0.35744E-01   -0.27947E-01 15456   0.745E-01    0.186E+00
DAV:   9    -0.667144507900E+03   -0.17267E-01   -0.14115E-01 15408   0.496E-01    0.269E+00
DAV:  10    -0.667137860800E+03    0.66471E-02   -0.11446E-01 13536   0.357E-01    0.112E+00
DAV:  11    -0.667147644331E+03   -0.97835E-02   -0.19669E-02 14880   0.230E-01    0.138E+00
DAV:  12    -0.667151788571E+03   -0.41442E-02   -0.91750E-03 15120   0.159E-01    0.976E-01
DAV:  13    -0.667151694588E+03    0.93983E-04   -0.45456E-03 15120   0.109E-01    0.669E-01
DAV:  14    -0.667149812215E+03    0.18824E-02   -0.38689E-03 14976   0.923E-02    0.236E-01
DAV:  15    -0.667149193673E+03    0.61854E-03   -0.15208E-03 14400   0.597E-02    0.290E-01
DAV:  16    -0.667147841139E+03    0.13525E-02   -0.87141E-04 15744   0.487E-02    0.180E-01
DAV:  17    -0.667147929845E+03   -0.88706E-04   -0.39687E-04 15456   0.325E-02    0.215E-01
DAV:  18    -0.667147467080E+03    0.46276E-03   -0.63700E-04 15072   0.352E-02    0.886E-02
DAV:  19    -0.667147809966E+03   -0.34289E-03   -0.22313E-04 14256   0.204E-02    0.624E-02
DAV:  20    -0.667148290352E+03   -0.48039E-03   -0.10939E-04 15840   0.136E-02    0.411E-02
DAV:  21    -0.667148896020E+03   -0.60567E-03   -0.96218E-05 14448   0.110E-02    0.399E-02
DAV:  22    -0.667149584594E+03   -0.68857E-03   -0.88628E-05 14592   0.109E-02    0.572E-02
DAV:  23    -0.667149983437E+03   -0.39884E-03   -0.34684E-05 14304   0.852E-03    0.295E-02
DAV:  24    -0.667150509860E+03   -0.52642E-03   -0.55485E-05 13440   0.734E-03    0.272E-02
DAV:  25    -0.667150920504E+03   -0.41064E-03   -0.25391E-05 12624   0.569E-03    0.249E-02
DAV:  26    -0.667151257142E+03   -0.33664E-03   -0.19549E-05 12624   0.519E-03    0.215E-02
DAV:  27    -0.667151775827E+03   -0.51868E-03   -0.39552E-05 11280   0.594E-03    0.182E-02
DAV:  28    -0.667152077829E+03   -0.30200E-03   -0.24095E-05 12528   0.491E-03    0.126E-02
DAV:  29    -0.667152245993E+03   -0.16816E-03   -0.10926E-05 10752   0.370E-03    0.177E-02
DAV:  30    -0.667152356631E+03   -0.11064E-03   -0.66482E-06  9888   0.321E-03    0.977E-03
DAV:  31    -0.667152419279E+03   -0.62648E-04   -0.36752E-06  9120   0.244E-03    0.800E-03
DAV:  32    -0.667152474897E+03   -0.55618E-04   -0.42436E-06  9120   0.234E-03    0.748E-03
DAV:  33    -0.667152529161E+03   -0.54264E-04   -0.50365E-06 10944   0.258E-03    0.689E-03
DAV:  34    -0.667152570393E+03   -0.41232E-04   -0.54800E-06  9888   0.230E-03    0.523E-03
DAV:  35    -0.667152588594E+03   -0.18201E-04   -0.33197E-06  9024   0.199E-03    0.543E-03
DAV:  36    -0.667152593384E+03   -0.47902E-05   -0.10239E-06  7344   0.147E-03    0.516E-03
DAV:  37    -0.667152597235E+03   -0.38507E-05   -0.15487E-06  8208   0.149E-03    0.461E-03
DAV:  38    -0.667152598792E+03   -0.15568E-05   -0.16768E-06  8640   0.163E-03    0.438E-03
DAV:  39    -0.667152597338E+03    0.14532E-05   -0.13452E-05 10944   0.312E-03    0.518E-03
DAV:  40    -0.667152590884E+03    0.64540E-05   -0.17183E-05 10272   0.340E-03    0.609E-03
DAV:  41    -0.667152586682E+03    0.42021E-05   -0.10928E-05 10032   0.285E-03    0.461E-03
DAV:  42    -0.667152580517E+03    0.61654E-05   -0.14088E-05 10512   0.301E-03    0.570E-03
DAV:  43    -0.667152579362E+03    0.11553E-05   -0.27254E-06  9072   0.173E-03    0.466E-03
DAV:  44    -0.667152578457E+03    0.90458E-06   -0.98862E-06  9696   0.242E-03
  13 F= -.66715258E+03 E0= -.66712121E+03  d E =-.574140E+00  mag=    19.9328
       N       E                     dE             d eps       ncg     rms          rms(c)
DAV:   1    -0.667232103596E+03   -0.79524E-01   -0.11162E+02  9600   0.156E+01    0.416E+00
DAV:   2    -0.667576433015E+03   -0.34433E+00   -0.43467E+00 14112   0.365E+00    0.541E+00
DAV:   3    -0.667512567312E+03    0.63866E-01   -0.88921E-01 16272   0.154E+00    0.413E+00
DAV:   4    -0.667503536481E+03    0.90308E-02   -0.25668E-01 16320   0.739E-01    0.290E+00
DAV:   5    -0.667511859198E+03   -0.83227E-02   -0.24743E-01 16272   0.663E-01    0.313E+00
DAV:   6    -0.667506419138E+03    0.54401E-02   -0.23886E-01 15600   0.589E-01    0.243E+00
DAV:   7    -0.667494730621E+03    0.11689E-01   -0.22957E-01 15312   0.461E-01    0.137E+00
DAV:   8    -0.667488268656E+03    0.64620E-02   -0.37003E-02 14448   0.324E-01    0.103E+00
DAV:   9    -0.667489388846E+03   -0.11202E-02   -0.14408E-02 15504   0.200E-01    0.393E-01
DAV:  10    -0.667490403366E+03   -0.10145E-02   -0.60695E-03 15456   0.113E-01    0.318E-01
DAV:  11    -0.667492515636E+03   -0.21123E-02   -0.27637E-03 14784   0.722E-02    0.399E-01
DAV:  12    -0.667494812382E+03   -0.22967E-02   -0.23281E-03 15744   0.670E-02    0.132E-01
DAV:  13    -0.667496620007E+03   -0.18076E-02   -0.84297E-04 14976   0.444E-02    0.193E-01
DAV:  14    -0.667497281371E+03   -0.66136E-03   -0.32328E-04 15552   0.282E-02    0.583E-02
DAV:  15    -0.667498169603E+03   -0.88823E-03   -0.12450E-04 13920   0.176E-02    0.704E-02
DAV:  16    -0.667498979392E+03   -0.80979E-03   -0.67140E-05 15696   0.125E-02    0.445E-02
DAV:  17    -0.667499605982E+03   -0.62659E-03   -0.37477E-05 13872   0.926E-03    0.434E-02
DAV:  18    -0.667500093749E+03   -0.48777E-03   -0.22402E-05 13392   0.694E-03    0.224E-02
DAV:  19    -0.667500468554E+03   -0.37481E-03   -0.13675E-05 12624   0.528E-03    0.248E-02
DAV:  20    -0.667500753180E+03   -0.28463E-03   -0.67408E-06  9936   0.385E-03    0.152E-02
DAV:  21    -0.667501111323E+03   -0.35814E-03   -0.97833E-06 10176   0.382E-03    0.855E-03
DAV:  22    -0.667501329915E+03   -0.21859E-03   -0.56960E-06  9264   0.334E-03    0.909E-03
DAV:  23    -0.667501454733E+03   -0.12482E-03   -0.24277E-06  8496   0.255E-03    0.541E-03
DAV:  24    -0.667501566049E+03   -0.11132E-03   -0.27606E-06  8400   0.223E-03    0.590E-03
DAV:  25    -0.667501632002E+03   -0.65953E-04   -0.13538E-06  7440   0.187E-03    0.459E-03
DAV:  26    -0.667501711331E+03   -0.79328E-04   -0.28236E-06  8928   0.197E-03    0.410E-03
DAV:  27    -0.667501754701E+03   -0.43370E-04   -0.15005E-06  7536   0.175E-03    0.385E-03
DAV:  28    -0.667501780701E+03   -0.26000E-04   -0.12868E-06  7440   0.155E-03    0.338E-03
DAV:  29    -0.667501790667E+03   -0.99662E-05   -0.64523E-07  6960   0.149E-03    0.275E-03
DAV:  30    -0.667501795047E+03   -0.43798E-05   -0.45207E-07  6624   0.125E-03    0.178E-03
DAV:  31    -0.667501796666E+03   -0.16183E-05   -0.27852E-07  6288   0.114E-03    0.133E-03
DAV:  32    -0.667501797066E+03   -0.40086E-06   -0.24157E-07  6432   0.962E-04
  14 F= -.66750180E+03 E0= -.66747061E+03  d E =-.349219E+00  mag=    19.8046
       N       E                     dE             d eps       ncg     rms          rms(c)
DAV:   1    -0.666817078520E+03    0.68472E+00   -0.39314E+02 10080   0.294E+01    0.884E+00
DAV:   2    -0.668481146985E+03   -0.16641E+01   -0.25008E+01 14016   0.759E+00    0.115E+01
DAV:   3    -0.667820922947E+03    0.66022E+00   -0.31722E+00 15072   0.384E+00    0.642E+00
DAV:   4    -0.667807018147E+03    0.13905E-01   -0.19174E+00 15648   0.175E+00    0.629E+00
DAV:   5    -0.667791518330E+03    0.15500E-01   -0.67093E-01 15168   0.126E+00    0.504E+00
DAV:   6    -0.667828301488E+03   -0.36783E-01   -0.11984E+00 15840   0.163E+00    0.606E+00
DAV:   7    -0.667863696214E+03   -0.35395E-01   -0.21569E+00 15312   0.182E+00    0.573E+00
DAV:   8    -0.667785749100E+03    0.77947E-01   -0.35365E-01 14688   0.891E-01    0.413E+00
DAV:   9    -0.667743771201E+03    0.41978E-01   -0.46071E-01 15600   0.798E-01    0.271E+00
DAV:  10    -0.667754327361E+03   -0.10556E-01   -0.15903E-01 14976   0.556E-01    0.193E+00
DAV:  11    -0.667755127823E+03   -0.80046E-03   -0.42700E-02 15120   0.346E-01    0.121E+00
DAV:  12    -0.667756452735E+03   -0.13249E-02   -0.14926E-02 14256   0.199E-01    0.883E-01
DAV:  13    -0.667761989841E+03   -0.55371E-02   -0.64082E-03 14928   0.151E-01    0.492E-01
DAV:  14    -0.667767090669E+03   -0.51008E-02   -0.36934E-03 14400   0.105E-01    0.332E-01
DAV:  15    -0.667770179412E+03   -0.30887E-02   -0.11515E-03 15504   0.584E-02    0.177E-01
DAV:  16    -0.667773638201E+03   -0.34588E-02   -0.88573E-04 14832   0.467E-02    0.160E-01
DAV:  17    -0.667775451299E+03   -0.18131E-02   -0.37435E-04 14688   0.319E-02    0.239E-01
DAV:  18    -0.667776734626E+03   -0.12833E-02   -0.25677E-04 15456   0.256E-02    0.688E-02
DAV:  19    -0.667777595499E+03   -0.86087E-03   -0.12721E-04 13152   0.178E-02    0.482E-02
DAV:  20    -0.667778572307E+03   -0.97681E-03   -0.63572E-05 14160   0.118E-02    0.551E-02
DAV:  21    -0.667779258708E+03   -0.68640E-03   -0.42309E-05 14112   0.898E-03    0.618E-02
DAV:  22    -0.667779735671E+03   -0.47696E-03   -0.24707E-05 13440   0.667E-03    0.594E-02
DAV:  23    -0.667780264852E+03   -0.52918E-03   -0.18697E-05 12768   0.574E-03    0.297E-02
DAV:  24    -0.667780813449E+03   -0.54860E-03   -0.17130E-05 13104   0.557E-03    0.142E-02
DAV:  25    -0.667781141045E+03   -0.32760E-03   -0.95882E-06 10992   0.398E-03    0.137E-02
DAV:  26    -0.667781374824E+03   -0.23378E-03   -0.56901E-06  8928   0.310E-03    0.750E-03
DAV:  27    -0.667781573341E+03   -0.19852E-03   -0.45071E-06  9456   0.266E-03    0.717E-03
DAV:  28    -0.667781772368E+03   -0.19903E-03   -0.47215E-06  9024   0.253E-03    0.907E-03
DAV:  29    -0.667781875998E+03   -0.10363E-03   -0.18020E-06  7584   0.204E-03    0.704E-03
DAV:  30    -0.667781945898E+03   -0.69900E-04   -0.14290E-06  7536   0.182E-03    0.412E-03
DAV:  31    -0.667782013357E+03   -0.67459E-04   -0.15995E-06  7824   0.185E-03    0.284E-03
DAV:  32    -0.667782040882E+03   -0.27525E-04   -0.63407E-07  6960   0.160E-03    0.227E-03
DAV:  33    -0.667782065418E+03   -0.24536E-04   -0.62043E-07  7008   0.138E-03    0.209E-03
DAV:  34    -0.667782081800E+03   -0.16382E-04   -0.52288E-07  6720   0.136E-03    0.209E-03
DAV:  35    -0.667782092121E+03   -0.10321E-04   -0.40146E-07  6528   0.119E-03    0.171E-03
DAV:  36    -0.667782101643E+03   -0.95225E-05   -0.47554E-07  6912   0.118E-03    0.177E-03
DAV:  37    -0.667782104951E+03   -0.33077E-05   -0.34486E-07  6480   0.111E-03    0.106E-03
DAV:  38    -0.667782105007E+03   -0.55828E-07   -0.18642E-07  6240   0.973E-04
  15 F= -.66778211E+03 E0= -.66775140E+03  d E =-.629527E+00  mag=    19.8000
       N       E                     dE             d eps       ncg     rms          rms(c)
DAV:   1    -0.667692505880E+03    0.89599E-01   -0.20667E+02  9600   0.212E+01    0.510E+00
DAV:   2    -0.668262575097E+03   -0.57007E+00   -0.63853E+00 14160   0.482E+00    0.595E+00
DAV:   3    -0.668210505838E+03    0.52069E-01   -0.63811E-01 17520   0.149E+00    0.397E+00
DAV:   4    -0.668206206371E+03    0.42995E-02   -0.16865E-01 15840   0.704E-01    0.305E+00
DAV:   5    -0.668193138517E+03    0.13068E-01   -0.22153E-01 15552   0.763E-01    0.266E+00
DAV:   6    -0.668193649910E+03   -0.51139E-03   -0.28690E-01 16368   0.735E-01    0.271E+00
DAV:   7    -0.668186137533E+03    0.75124E-02   -0.14988E-01 16848   0.563E-01    0.153E+00
DAV:   8    -0.668184652771E+03    0.14848E-02   -0.43097E-02 14304   0.300E-01    0.650E-01
DAV:   9    -0.668186971203E+03   -0.23184E-02   -0.10820E-02 15264   0.162E-01    0.603E-01
DAV:  10    -0.668187643936E+03   -0.67273E-03   -0.33082E-03 14592   0.109E-01    0.234E-01
DAV:  11    -0.668190288104E+03   -0.26442E-02   -0.30422E-03 14496   0.725E-02    0.218E-01
DAV:  12    -0.668192851412E+03   -0.25633E-02   -0.17061E-03 15024   0.539E-02    0.133E-01
DAV:  13    -0.668194431212E+03   -0.15798E-02   -0.50034E-04 16464   0.352E-02    0.748E-02
DAV:  14    -0.668195844998E+03   -0.14138E-02   -0.16701E-04 15072   0.205E-02    0.427E-02
DAV:  15    -0.668197031849E+03   -0.11869E-02   -0.63952E-05 16032   0.129E-02    0.305E-02
DAV:  16    -0.668198162157E+03   -0.11303E-02   -0.41070E-05 13392   0.975E-03    0.283E-02
DAV:  17    -0.668199233099E+03   -0.10709E-02   -0.31160E-05 13296   0.775E-03    0.184E-02
DAV:  18    -0.668199998799E+03   -0.76570E-03   -0.19274E-05 12960   0.578E-03    0.161E-02
DAV:  19    -0.668200437404E+03   -0.43861E-03   -0.94350E-06 10224   0.421E-03    0.120E-02
DAV:  20    -0.668200850383E+03   -0.41298E-03   -0.83418E-06  9936   0.371E-03    0.950E-03
DAV:  21    -0.668201096489E+03   -0.24611E-03   -0.52892E-06  8928   0.303E-03    0.898E-03
DAV:  22    -0.668201340275E+03   -0.24379E-03   -0.53647E-06  9600   0.295E-03    0.858E-03
DAV:  23    -0.668201507234E+03   -0.16696E-03   -0.39846E-06  8544   0.258E-03    0.705E-03
DAV:  24    -0.668201680648E+03   -0.17341E-03   -0.50782E-06  9504   0.260E-03    0.571E-03
DAV:  25    -0.668201757097E+03   -0.76449E-04   -0.19656E-06  7680   0.197E-03    0.471E-03
DAV:  26    -0.668201817382E+03   -0.60285E-04   -0.15922E-06  7920   0.183E-03    0.445E-03
DAV:  27    -0.668201848016E+03   -0.30634E-04   -0.93577E-07  7200   0.171E-03    0.279E-03
DAV:  28    -0.668201873412E+03   -0.25396E-04   -0.10142E-06  7872   0.157E-03    0.223E-03
DAV:  29    -0.668201884252E+03   -0.10841E-04   -0.66378E-07  6912   0.158E-03    0.184E-03
DAV:  30    -0.668201887502E+03   -0.32491E-05   -0.44648E-07  6576   0.133E-03    0.149E-03
DAV:  31    -0.668201888060E+03   -0.55826E-06   -0.60968E-07  7104   0.132E-03
  16 F= -.66820189E+03 E0= -.66817315E+03  d E =-.419783E+00  mag=    19.8171
       N       E                     dE             d eps       ncg     rms          rms(c)
DAV:   1    -0.668027011017E+03    0.17488E+00   -0.11907E+02  9600   0.162E+01    0.398E+00
DAV:   2    -0.668364304040E+03   -0.33729E+00   -0.36573E+00 14016   0.365E+00    0.566E+00
DAV:   3    -0.668323519774E+03    0.40784E-01   -0.36521E-01 15312   0.113E+00    0.367E+00
DAV:   4    -0.668353148257E+03   -0.29628E-01   -0.40936E-01 16128   0.932E-01    0.507E+00
DAV:   5    -0.668323949248E+03    0.29199E-01   -0.22027E-01 16896   0.725E-01    0.304E+00
DAV:   6    -0.668320650285E+03    0.32990E-02   -0.25226E-01 15168   0.785E-01    0.373E+00
DAV:   7    -0.668306988101E+03    0.13662E-01   -0.11531E-01 14880   0.649E-01    0.151E+00
DAV:   8    -0.668310027046E+03   -0.30389E-02   -0.46679E-02 14688   0.336E-01    0.941E-01
DAV:   9    -0.668309719505E+03    0.30754E-03   -0.15842E-02 14112   0.197E-01    0.871E-01
DAV:  10    -0.668309668421E+03    0.51084E-04   -0.44938E-03 15216   0.133E-01    0.528E-01
DAV:  11    -0.668310640649E+03   -0.97223E-03   -0.28919E-03 15024   0.103E-01    0.496E-01
DAV:  12    -0.668310772448E+03   -0.13180E-03   -0.18017E-03 15168   0.802E-02    0.187E-01
DAV:  13    -0.668311078465E+03   -0.30602E-03   -0.79920E-04 13440   0.464E-02    0.153E-01
DAV:  14    -0.668311121971E+03   -0.43505E-04   -0.26523E-04 16080   0.242E-02    0.124E-01
DAV:  15    -0.668311132201E+03   -0.10231E-04   -0.97834E-05 14112   0.138E-02    0.112E-01
DAV:  16    -0.668311137639E+03   -0.54384E-05   -0.10700E-05 13872   0.604E-03    0.111E-01
DAV:  17    -0.668311134697E+03    0.29421E-05   -0.30791E-05 13824   0.600E-03    0.125E-01
DAV:  18    -0.668311171847E+03   -0.37150E-04   -0.14315E-04 13200   0.167E-02    0.118E-01
DAV:  19    -0.668311188227E+03   -0.16380E-04   -0.10274E-04 13920   0.140E-02    0.101E-01
DAV:  20    -0.668311305766E+03   -0.11754E-03   -0.37537E-04 13152   0.230E-02    0.104E-01
DAV:  21    -0.668311505597E+03   -0.19983E-03   -0.65616E-04 13824   0.333E-02    0.169E-01
DAV:  22    -0.668311703500E+03   -0.19790E-03   -0.60518E-04 13200   0.297E-02    0.254E-01
DAV:  23    -0.668311814639E+03   -0.11114E-03   -0.11801E-04 15072   0.152E-02    0.283E-01
DAV:  24    -0.668311894206E+03   -0.79567E-04   -0.91431E-05 14112   0.107E-02    0.305E-01
DAV:  25    -0.668311957859E+03   -0.63654E-04   -0.59810E-05 14928   0.952E-03    0.322E-01
DAV:  26    -0.668312029163E+03   -0.71304E-04   -0.11378E-04 13728   0.117E-02    0.350E-01
DAV:  27    -0.668312070602E+03   -0.41438E-04   -0.93414E-05 14112   0.105E-02    0.367E-01
DAV:  28    -0.668312081296E+03   -0.10695E-04   -0.32767E-05 13248   0.687E-03    0.374E-01
DAV:  29    -0.668312076155E+03    0.51409E-05   -0.28130E-05 12528   0.597E-03    0.377E-01
DAV:  30    -0.668312063594E+03    0.12562E-04   -0.46331E-05 13104   0.753E-03    0.375E-01
DAV:  31    -0.668312060283E+03    0.33106E-05   -0.36271E-05 13392   0.662E-03    0.376E-01
DAV:  32    -0.668312069761E+03   -0.94783E-05   -0.28419E-05 13344   0.584E-03    0.374E-01
DAV:  33    -0.668312077257E+03   -0.74952E-05   -0.29118E-05 13056   0.576E-03    0.375E-01
DAV:  34    -0.668312096478E+03   -0.19221E-04   -0.42463E-05 13440   0.682E-03    0.377E-01
DAV:  35    -0.668312107867E+03   -0.11389E-04   -0.20279E-05 13392   0.510E-03    0.380E-01
[...]
DAV:  39    -0.673319849026E+03   -0.45892E-06   -0.27048E-07  6720   0.110E-03
  81 F= -.67331985E+03 E0= -.67330050E+03  d E =-.312196E-01  mag=    20.2375
       N       E                     dE             d eps       ncg     rms          rms(c)
DAV:   1    -0.673312001213E+03    0.78474E-02   -0.36119E+00  9600   0.265E+00    0.507E-01
DAV:   2    -0.673321619613E+03   -0.96184E-02   -0.10045E-01 13968   0.582E-01    0.111E+00
DAV:   3    -0.673320870717E+03    0.74890E-03   -0.88745E-03 17808   0.207E-01    0.435E-01
DAV:   4    -0.673320972169E+03   -0.10145E-03   -0.15613E-03 15888   0.855E-02    0.325E-01
DAV:   5    -0.673321029880E+03   -0.57711E-04   -0.21862E-03 15552   0.810E-02    0.491E-01
DAV:   6    -0.673320668832E+03    0.36105E-03   -0.28189E-03 14784   0.915E-02    0.449E-01
DAV:   7    -0.673320572449E+03    0.96383E-04   -0.10033E-03 14496   0.647E-02    0.824E-02
DAV:   8    -0.673320715492E+03   -0.14304E-03   -0.39774E-04 13872   0.328E-02    0.562E-02
DAV:   9    -0.673320773281E+03   -0.57789E-04   -0.98999E-05 16176   0.170E-02    0.557E-02
DAV:  10    -0.673320829249E+03   -0.55968E-04   -0.40873E-05 14880   0.111E-02    0.258E-02
DAV:  11    -0.673320872341E+03   -0.43092E-04   -0.16920E-05 13632   0.676E-03    0.105E-02
DAV:  12    -0.673320913035E+03   -0.40693E-04   -0.83388E-06 11904   0.458E-03    0.157E-02
DAV:  13    -0.673320937240E+03   -0.24206E-04   -0.33804E-06  8208   0.353E-03    0.819E-03
DAV:  14    -0.673320958749E+03   -0.21508E-04   -0.16691E-06  8304   0.252E-03    0.515E-03
DAV:  15    -0.673320976101E+03   -0.17353E-04   -0.10722E-06  7824   0.184E-03    0.460E-03
DAV:  16    -0.673320994911E+03   -0.18809E-04   -0.10816E-06  8448   0.164E-03    0.406E-03
DAV:  17    -0.673321012300E+03   -0.17389E-04   -0.11238E-06  8544   0.153E-03    0.402E-03
DAV:  18    -0.673321032821E+03   -0.20522E-04   -0.17186E-06  9216   0.155E-03    0.375E-03
DAV:  19    -0.673321056078E+03   -0.23257E-04   -0.35433E-06 10080   0.183E-03    0.390E-03
DAV:  20    -0.673321066149E+03   -0.10071E-04   -0.13197E-06  8016   0.136E-03    0.347E-03
DAV:  21    -0.673321078193E+03   -0.12044E-04   -0.32647E-06  9744   0.167E-03    0.351E-03
DAV:  22    -0.673321082780E+03   -0.45870E-05   -0.21009E-06  8688   0.150E-03    0.345E-03
DAV:  23    -0.673321083196E+03   -0.41560E-06   -0.16754E-06  8160   0.137E-03
  82 F= -.67332108E+03 E0= -.67330204E+03  d E =-.324538E-01  mag=    20.2349
       N       E                     dE             d eps       ncg     rms          rms(c)
DAV:   1    -0.673287630683E+03    0.33452E-01   -0.23212E+01  9600   0.692E+00    0.157E+00
DAV:   2    -0.673346249660E+03   -0.58619E-01   -0.65833E-01 13824   0.151E+00    0.153E+00
DAV:   3    -0.673349260911E+03   -0.30113E-02   -0.70965E-02 18672   0.562E-01    0.145E+00
DAV:   4    -0.673346364258E+03    0.28967E-02   -0.17055E-02 16320   0.283E-01    0.673E-01
DAV:   5    -0.673346896823E+03   -0.53256E-03   -0.20864E-02 17424   0.219E-01    0.733E-01
DAV:   6    -0.673345200025E+03    0.16968E-02   -0.12974E-02 14832   0.207E-01    0.898E-01
DAV:   7    -0.673344901622E+03    0.29840E-03   -0.59976E-03 14544   0.165E-01    0.193E-01
DAV:   8    -0.673345284740E+03   -0.38312E-03   -0.23140E-03 13728   0.812E-02    0.207E-01
DAV:   9    -0.673345345482E+03   -0.60741E-04   -0.63327E-04 15120   0.472E-02    0.247E-01
DAV:  10    -0.673345469482E+03   -0.12400E-03   -0.31719E-04 15552   0.370E-02    0.732E-02
DAV:  11    -0.673345720545E+03   -0.25106E-03   -0.14261E-04 13680   0.206E-02    0.732E-02
DAV:  12    -0.673345890399E+03   -0.16985E-03   -0.10024E-04 15552   0.154E-02    0.546E-02
DAV:  13    -0.673346019016E+03   -0.12862E-03   -0.25320E-05 13008   0.101E-02    0.392E-02
DAV:  14    -0.673346114612E+03   -0.95596E-04   -0.14917E-05 14208   0.612E-03    0.207E-02
DAV:  15    -0.673346195652E+03   -0.81040E-04   -0.81991E-06 11616   0.472E-03    0.109E-02
DAV:  16    -0.673346265957E+03   -0.70305E-04   -0.53595E-06 10560   0.326E-03    0.893E-03
DAV:  17    -0.673346334298E+03   -0.68341E-04   -0.45874E-06  9648   0.269E-03    0.104E-02
DAV:  18    -0.673346379455E+03   -0.45158E-04   -0.30147E-06  8880   0.238E-03    0.116E-02
DAV:  19    -0.673346427334E+03   -0.47878E-04   -0.44421E-06 10752   0.256E-03    0.826E-03
DAV:  20    -0.673346496292E+03   -0.68958E-04   -0.12289E-05 11904   0.338E-03    0.758E-03
DAV:  21    -0.673346537380E+03   -0.41088E-04   -0.91824E-06 10704   0.285E-03    0.832E-03
DAV:  22    -0.673346562836E+03   -0.25456E-04   -0.13023E-05 10896   0.321E-03    0.631E-03
DAV:  23    -0.673346567213E+03   -0.43771E-05   -0.81676E-06  9984   0.266E-03    0.617E-03
DAV:  24    -0.673346545196E+03    0.22017E-04   -0.24323E-05 12480   0.431E-03    0.652E-03
DAV:  25    -0.673346511388E+03    0.33808E-04   -0.26314E-05 11808   0.443E-03    0.716E-03
DAV:  26    -0.673346467932E+03    0.43455E-04   -0.76552E-05 12336   0.710E-03    0.676E-03
DAV:  27    -0.673346449057E+03    0.18876E-04   -0.49402E-05 13152   0.613E-03    0.525E-03
DAV:  28    -0.673346457115E+03   -0.80582E-05   -0.28238E-05 11376   0.452E-03    0.600E-03
DAV:  29    -0.673346474495E+03   -0.17380E-04   -0.20894E-05 11568   0.383E-03    0.467E-03
DAV:  30    -0.673346493870E+03   -0.19375E-04   -0.37076E-05 11616   0.483E-03    0.473E-03
DAV:  31    -0.673346512809E+03   -0.18939E-04   -0.51014E-05 12960   0.574E-03    0.482E-03
DAV:  32    -0.673346533061E+03   -0.20252E-04   -0.92785E-06  9936   0.305E-03    0.686E-03
DAV:  33    -0.673346561461E+03   -0.28400E-04   -0.16087E-05 10896   0.331E-03    0.605E-03
DAV:  34    -0.673346570304E+03   -0.88424E-05   -0.11306E-05 10464   0.301E-03    0.333E-03
DAV:  35    -0.673346571515E+03   -0.12111E-05   -0.50637E-06  9216   0.211E-03    0.388E-03
DAV:  36    -0.673346571791E+03   -0.27602E-06   -0.22749E-07  6480   0.111E-03
  83 F= -.67334657E+03 E0= -.67332849E+03  d E =-.254886E-01  mag=    20.2298
       N       E                     dE             d eps       ncg     rms          rms(c)
DAV:   1    -0.673326569510E+03    0.20002E-01   -0.97569E+00  9600   0.449E+00    0.995E-01
DAV:   2    -0.673350819142E+03   -0.24250E-01   -0.27507E-01 13728   0.975E-01    0.915E-01
DAV:   3    -0.673351847106E+03   -0.10280E-02   -0.29054E-02 18336   0.341E-01    0.825E-01
DAV:   4    -0.673350898270E+03    0.94884E-03   -0.61792E-03 16080   0.173E-01    0.434E-01
DAV:   5    -0.673351131108E+03   -0.23284E-03   -0.82338E-03 17040   0.131E-01    0.447E-01
DAV:   6    -0.673350321304E+03    0.80980E-03   -0.51922E-03 15168   0.124E-01    0.443E-01
DAV:   7    -0.673350389934E+03   -0.68630E-04   -0.19637E-03 14832   0.935E-02    0.136E-01
DAV:   8    -0.673350488174E+03   -0.98240E-04   -0.66759E-04 14688   0.452E-02    0.776E-02
DAV:   9    -0.673350559050E+03   -0.70876E-04   -0.21487E-04 15408   0.249E-02    0.122E-01
DAV:  10    -0.673350647166E+03   -0.88116E-04   -0.13681E-04 15504   0.211E-02    0.967E-02
DAV:  11    -0.673350713957E+03   -0.66791E-04   -0.50417E-05 13680   0.144E-02    0.183E-02
DAV:  12    -0.673350804072E+03   -0.90115E-04   -0.29324E-05 14016   0.827E-03    0.305E-02
DAV:  13    -0.673350858160E+03   -0.54087E-04   -0.91948E-06 12576   0.562E-03    0.929E-03
DAV:  14    -0.673350908926E+03   -0.50767E-04   -0.45320E-06  9984   0.341E-03    0.127E-02
DAV:  15    -0.673350944011E+03   -0.35085E-04   -0.25897E-06  8112   0.275E-03    0.713E-03
DAV:  16    -0.673351000500E+03   -0.56489E-04   -0.54950E-06 10992   0.292E-03    0.668E-03
DAV:  17    -0.673351032573E+03   -0.32073E-04   -0.30693E-06  8640   0.224E-03    0.748E-03
DAV:  18    -0.673351068218E+03   -0.35645E-04   -0.42850E-06  9984   0.246E-03    0.723E-03
DAV:  19    -0.673351093713E+03   -0.25495E-04   -0.41550E-06  9600   0.233E-03    0.550E-03
DAV:  20    -0.673351118732E+03   -0.25019E-04   -0.76555E-06 11184   0.272E-03    0.517E-03
DAV:  21    -0.673351130264E+03   -0.11532E-04   -0.76332E-06 10464   0.255E-03    0.552E-03
DAV:  22    -0.673351129198E+03    0.10656E-05   -0.80727E-06 10416   0.260E-03    0.498E-03
DAV:  23    -0.673351124276E+03    0.49225E-05   -0.26040E-06  8640   0.178E-03    0.471E-03
DAV:  24    -0.673351115332E+03    0.89435E-05   -0.58038E-06  9888   0.234E-03    0.494E-03
DAV:  25    -0.673351100535E+03    0.14797E-04   -0.29475E-05 12816   0.463E-03    0.517E-03
DAV:  26    -0.673351095903E+03    0.46319E-05   -0.56944E-05 11904   0.622E-03    0.415E-03
DAV:  27    -0.673351109075E+03   -0.13172E-04   -0.47751E-05 12912   0.575E-03    0.398E-03
DAV:  28    -0.673351118869E+03   -0.97936E-05   -0.28193E-05 11472   0.449E-03    0.372E-03
DAV:  29    -0.673351121771E+03   -0.29020E-05   -0.38619E-05 12288   0.503E-03    0.332E-03
DAV:  30    -0.673351124502E+03   -0.27311E-05   -0.88711E-06 10560   0.293E-03    0.315E-03
DAV:  31    -0.673351125622E+03   -0.11204E-05   -0.46618E-07  6720   0.122E-03    0.327E-03
DAV:  32    -0.673351126850E+03   -0.12284E-05   -0.35667E-07  6864   0.904E-04    0.287E-03
DAV:  33    -0.673351132311E+03   -0.54610E-05   -0.50672E-06  9552   0.229E-03    0.254E-03
DAV:  34    -0.673351133827E+03   -0.15150E-05   -0.10128E-05 10800   0.284E-03    0.241E-03
DAV:  35    -0.673351131893E+03    0.19332E-05   -0.43819E-05 12192   0.528E-03    0.413E-03
DAV:  36    -0.673351133662E+03   -0.17688E-05   -0.14613E-06  8256   0.234E-03    0.355E-03
DAV:  37    -0.673351133596E+03    0.66386E-07   -0.73513E-07  7344   0.127E-03
  84 F= -.67335113E+03 E0= -.67333370E+03  d E =-.300504E-01  mag=    20.2260
       N       E                     dE             d eps       ncg     rms          rms(c)
DAV:   1    -0.673325427030E+03    0.25707E-01   -0.17963E+01  9600   0.623E+00    0.126E+00
DAV:   2    -0.673375120035E+03   -0.49693E-01   -0.50822E-01 13728   0.136E+00    0.254E+00
DAV:   3    -0.673370241055E+03    0.48790E-02   -0.48218E-02 16896   0.508E-01    0.961E-01
DAV:   4    -0.673370460817E+03   -0.21976E-03   -0.10142E-02 16224   0.219E-01    0.625E-01
DAV:   5    -0.673371447672E+03   -0.98685E-03   -0.95881E-03 16368   0.191E-01    0.128E+00
DAV:   6    -0.673369587888E+03    0.18598E-02   -0.10353E-02 14016   0.194E-01    0.110E+00
DAV:   7    -0.673369110332E+03    0.47756E-03   -0.54865E-03 14736   0.161E-01    0.385E-01
DAV:   8    -0.673369534105E+03   -0.42377E-03   -0.30656E-03 13872   0.909E-02    0.208E-01
DAV:   9    -0.673369770069E+03   -0.23596E-03   -0.68235E-04 13488   0.515E-02    0.128E-01
DAV:  10    -0.673369980322E+03   -0.21025E-03   -0.17772E-04 14688   0.264E-02    0.956E-02
DAV:  11    -0.673370158314E+03   -0.17799E-03   -0.10350E-04 14592   0.182E-02    0.273E-02
DAV:  12    -0.673370299162E+03   -0.14085E-03   -0.59194E-05 14976   0.123E-02    0.271E-02
DAV:  13    -0.673370380223E+03   -0.81061E-04   -0.18112E-05 15504   0.716E-03    0.261E-02
DAV:  14    -0.673370453426E+03   -0.73203E-04   -0.11036E-05 12096   0.472E-03    0.108E-02
DAV:  15    -0.673370518153E+03   -0.64728E-04   -0.62872E-06 10224   0.374E-03    0.120E-02
DAV:  16    -0.673370574777E+03   -0.56624E-04   -0.38820E-06  9360   0.285E-03    0.814E-03
DAV:  17    -0.673370626204E+03   -0.51426E-04   -0.42122E-06  9312   0.260E-03    0.784E-03
DAV:  18    -0.673370662687E+03   -0.36483E-04   -0.28408E-06  8880   0.235E-03    0.760E-03
DAV:  19    -0.673370702569E+03   -0.39882E-04   -0.38387E-06  9888   0.240E-03    0.718E-03
DAV:  20    -0.673370758833E+03   -0.56264E-04   -0.10168E-05 11904   0.316E-03    0.696E-03
DAV:  21    -0.673370801640E+03   -0.42807E-04   -0.13444E-05 11760   0.342E-03    0.552E-03
DAV:  22    -0.673370812549E+03   -0.10909E-04   -0.12494E-05 11184   0.325E-03    0.549E-03
DAV:  23    -0.673370801347E+03    0.11202E-04   -0.67011E-06 10560   0.247E-03    0.530E-03
DAV:  24    -0.673370787929E+03    0.13418E-04   -0.59572E-06  9984   0.237E-03    0.546E-03
DAV:  25    -0.673370779539E+03    0.83904E-05   -0.28851E-06  8400   0.199E-03    0.525E-03
DAV:  26    -0.673370760254E+03    0.19285E-04   -0.23574E-05 12960   0.450E-03    0.495E-03
DAV:  27    -0.673370743761E+03    0.16493E-04   -0.75433E-05 12000   0.750E-03    0.593E-03
DAV:  28    -0.673370759602E+03   -0.15842E-04   -0.29204E-05 12672   0.524E-03    0.450E-03
DAV:  29    -0.673370783270E+03   -0.23668E-04   -0.21097E-05 12000   0.410E-03    0.443E-03
DAV:  30    -0.673370788211E+03   -0.49410E-05   -0.12046E-05 11040   0.323E-03    0.396E-03
DAV:  31    -0.673370795188E+03   -0.69762E-05   -0.13377E-05 10992   0.323E-03    0.415E-03
DAV:  32    -0.673370795604E+03   -0.41621E-06   -0.56756E-07  6960   0.164E-03
  85 F= -.67337080E+03 E0= -.67335420E+03  d E =-.196620E-01  mag=    20.2204
       N       E                     dE             d eps       ncg     rms          rms(c)
DAV:   1    -0.673360699677E+03    0.10096E-01   -0.51039E+00  9600   0.332E+00    0.658E-01
DAV:   2    -0.673374632301E+03   -0.13933E-01   -0.14447E-01 13968   0.725E-01    0.125E+00
DAV:   3    -0.673373326184E+03    0.13061E-02   -0.13712E-02 16896   0.264E-01    0.486E-01
DAV:   4    -0.673373388100E+03   -0.61916E-04   -0.27875E-03 16368   0.112E-01    0.325E-01
DAV:   5    -0.673373600761E+03   -0.21266E-03   -0.28190E-03 16176   0.964E-02    0.619E-01
DAV:   6    -0.673372925882E+03    0.67488E-03   -0.22661E-03 13680   0.909E-02    0.476E-01
DAV:   7    -0.673372979536E+03   -0.53654E-04   -0.15430E-03 14592   0.827E-02    0.188E-01
DAV:   8    -0.673373053039E+03   -0.73502E-04   -0.75041E-04 13728   0.441E-02    0.613E-02
DAV:   9    -0.673373155792E+03   -0.10275E-03   -0.16812E-04 14256   0.235E-02    0.518E-02
DAV:  10    -0.673373225357E+03   -0.69565E-04   -0.45245E-05 15360   0.123E-02    0.381E-02
DAV:  11    -0.673373291722E+03   -0.66365E-04   -0.21228E-05 14544   0.861E-03    0.126E-02
DAV:  12    -0.673373336683E+03   -0.44961E-04   -0.12050E-05 14064   0.560E-03    0.120E-02
DAV:  13    -0.673373365070E+03   -0.28387E-04   -0.28352E-06  8112   0.317E-03    0.983E-03
DAV:  14    -0.673373396304E+03   -0.31234E-04   -0.33096E-06  9120   0.267E-03    0.605E-03
DAV:  15    -0.673373420796E+03   -0.24492E-04   -0.18473E-06  7632   0.225E-03    0.676E-03
DAV:  16    -0.673373439795E+03   -0.18999E-04   -0.11648E-06  7440   0.201E-03    0.506E-03
DAV:  17    -0.673373459717E+03   -0.19922E-04   -0.15446E-06  7872   0.199E-03    0.417E-03
DAV:  18    -0.673373482301E+03   -0.22584E-04   -0.24524E-06  9792   0.227E-03    0.384E-03
DAV:  19    -0.673373506972E+03   -0.24671E-04   -0.46544E-06 11328   0.241E-03    0.418E-03
DAV:  20    -0.673373520513E+03   -0.13540E-04   -0.38709E-06  9504   0.200E-03    0.400E-03
DAV:  21    -0.673373525085E+03   -0.45721E-05   -0.19175E-06  8208   0.166E-03    0.329E-03
DAV:  22    -0.673373524759E+03    0.32542E-06   -0.12385E-06  7248   0.157E-03
  86 F= -.67337352E+03 E0= -.67335740E+03  d E =-.223912E-01  mag=    20.2167
       N       E                     dE             d eps       ncg     rms          rms(c)
DAV:   1    -0.673363844184E+03    0.96809E-02   -0.10522E+01  9600   0.481E+00    0.882E-01
DAV:   2    -0.673389424854E+03   -0.25581E-01   -0.27443E-01 13968   0.981E-01    0.812E-01
DAV:   3    -0.673390581197E+03   -0.11563E-02   -0.16465E-02 17904   0.232E-01    0.641E-01
DAV:   4    -0.673390490852E+03    0.90346E-04   -0.52519E-03 17424   0.145E-01    0.589E-01
DAV:   5    -0.673389951684E+03    0.53917E-03   -0.40253E-03 14736   0.131E-01    0.319E-01
DAV:   6    -0.673389881456E+03    0.70229E-04   -0.47769E-03 14496   0.108E-01    0.182E-01
DAV:   7    -0.673389855863E+03    0.25592E-04   -0.13000E-03 15024   0.571E-02    0.547E-02
DAV:   8    -0.673389888889E+03   -0.33026E-04   -0.24532E-04 14592   0.266E-02    0.918E-02
DAV:   9    -0.673389861620E+03    0.27270E-04   -0.67825E-05 15744   0.161E-02    0.361E-02
DAV:  10    -0.673389890288E+03   -0.28669E-04   -0.61642E-05 14352   0.126E-02    0.624E-02
DAV:  11    -0.673389904690E+03   -0.14402E-04   -0.38974E-05 14928   0.110E-02    0.261E-02
DAV:  12    -0.673389923994E+03   -0.19304E-04   -0.14915E-05 13008   0.712E-03    0.268E-02
DAV:  13    -0.673389931034E+03   -0.70397E-05   -0.58706E-06 10368   0.440E-03    0.138E-02
DAV:  14    -0.673389942253E+03   -0.11219E-04   -0.28576E-06  8688   0.349E-03    0.566E-03
DAV:  15    -0.673389949287E+03   -0.70337E-05   -0.12657E-06  7296   0.212E-03    0.456E-03
DAV:  16    -0.673389958328E+03   -0.90407E-05   -0.91612E-07  6864   0.172E-03    0.452E-03
DAV:  17    -0.673389966016E+03   -0.76881E-05   -0.98096E-07  6912   0.179E-03    0.343E-03
DAV:  18    -0.673389974296E+03   -0.82805E-05   -0.13625E-06  8256   0.189E-03    0.281E-03
DAV:  19    -0.673389981303E+03   -0.70065E-05   -0.15213E-06  8016   0.187E-03    0.301E-03
DAV:  20    -0.673389985494E+03   -0.41915E-05   -0.12089E-06  7344   0.179E-03    0.229E-03
DAV:  21    -0.673389988964E+03   -0.34693E-05   -0.17638E-06  8832   0.179E-03    0.219E-03
DAV:  22    -0.673389990124E+03   -0.11608E-05   -0.19895E-06  8400   0.178E-03    0.221E-03
DAV:  23    -0.673389989436E+03    0.68851E-06   -0.12817E-06  7488   0.157E-03
  87 F= -.67338999E+03 E0= -.67337412E+03  d E =-.164647E-01  mag=    20.2138
       N       E                     dE             d eps       ncg     rms          rms(c)
DAV:   1    -0.673354187557E+03    0.35803E-01   -0.17467E+01  9600   0.619E+00    0.113E+00
DAV:   2    -0.673396867923E+03   -0.42680E-01   -0.45639E-01 13872   0.126E+00    0.104E+00
DAV:   3    -0.673398660167E+03   -0.17922E-02   -0.27642E-02 17904   0.302E-01    0.823E-01
DAV:   4    -0.673398429000E+03    0.23117E-03   -0.82484E-03 17136   0.181E-01    0.721E-01
DAV:   5    -0.673397561886E+03    0.86711E-03   -0.61480E-03 14640   0.160E-01    0.382E-01
DAV:   6    -0.673397490674E+03    0.71213E-04   -0.62974E-03 14640   0.130E-01    0.202E-01
DAV:   7    -0.673397463736E+03    0.26937E-04   -0.19305E-03 14496   0.681E-02    0.760E-02
DAV:   8    -0.673397529846E+03   -0.66109E-04   -0.51708E-04 14832   0.369E-02    0.151E-01
DAV:   9    -0.673397462129E+03    0.67717E-04   -0.13608E-04 14736   0.241E-02    0.418E-02
DAV:  10    -0.673397505519E+03   -0.43390E-04   -0.11566E-04 14928   0.166E-02    0.717E-02
DAV:  11    -0.673397532200E+03   -0.26681E-04   -0.68462E-05 15552   0.137E-02    0.294E-02
DAV:  12    -0.673397558009E+03   -0.25809E-04   -0.21335E-05 13680   0.863E-03    0.315E-02
DAV:  13    -0.673397567628E+03   -0.96195E-05   -0.94864E-06 12240   0.552E-03    0.166E-02
DAV:  14    -0.673397582663E+03   -0.15034E-04   -0.37899E-06  9264   0.401E-03    0.603E-03
DAV:  15    -0.673397595134E+03   -0.12471E-04   -0.16341E-06  7392   0.233E-03    0.548E-03
DAV:  16    -0.673397607902E+03   -0.12768E-04   -0.81340E-07  7008   0.182E-03    0.371E-03
DAV:  17    -0.673397622099E+03   -0.14196E-04   -0.10739E-06  6960   0.182E-03    0.326E-03
DAV:  18    -0.673397633501E+03   -0.11402E-04   -0.84551E-07  7248   0.187E-03    0.262E-03
DAV:  19    -0.673397641630E+03   -0.81288E-05   -0.81930E-07  6864   0.178E-03    0.240E-03
DAV:  20    -0.673397647438E+03   -0.58087E-05   -0.65710E-07  6672   0.170E-03    0.192E-03
DAV:  21    -0.673397652821E+03   -0.53824E-05   -0.75440E-07  7248   0.165E-03    0.170E-03
DAV:  22    -0.673397657084E+03   -0.42635E-05   -0.89719E-07  7392   0.169E-03    0.153E-03
DAV:  23    -0.673397658506E+03   -0.14213E-05   -0.46913E-07  6528   0.148E-03    0.124E-03
DAV:  24    -0.673397659167E+03   -0.66146E-06   -0.54780E-07  6672   0.136E-03
  88 F= -.67339766E+03 E0= -.67338210E+03  d E =-.241344E-01  mag=    20.2085
       N       E                     dE             d eps       ncg     rms          rms(c)
DAV:   1    -0.673387947090E+03    0.97114E-02   -0.10058E+01  9600   0.469E+00    0.798E-01
DAV:   2    -0.673412458678E+03   -0.24512E-01   -0.26128E-01 14208   0.965E-01    0.948E-01
DAV:   3    -0.673412949965E+03   -0.49129E-03   -0.17438E-02 16368   0.289E-01    0.635E-01
