<?xml version="1.0" encoding="ISO-8859-1"?>
<modeling>
 <generator>
  <i name="program" type="string">vasp </i>
  <i name="version" type="string">6.4.3  </i>
  <i name="subversion" type="string">19Mar24 (build Mar 01 2025 17:53:50) complex                          parallel </i>
  <i name="platform" type="string">Shaheen </i>
  <i name="date" type="string">2025 04 20 </i>
  <i name="time" type="string">05:06:15 </i>
 </generator>
 <incar>
  <i type="int" name="ISTART">     1</i>
  <i type="string" name="PREC">Accurate   (Precision level: Normal or Accurate, set Accurate when perform structure lattice relaxation calculation)</i>
  <i type="logical" name="ADDGRID"> T  </i>
  <i type="int" name="ISPIN">     2</i>
  <i type="int" name="NELM">    90</i>
  <i type="int" name="NELMIN">     6</i>
  <i type="int" name="IBRION">     2</i>
  <i name="EDIFF">      0.00000100</i>
  <i name="EDIFFG">     -0.02000000</i>
  <i type="int" name="NSW">   300</i>
  <i type="int" name="ISIF">     2</i>
  <i name="ENCUT">    520.00000000</i>
  <v name="MAGMOM">      1.00000000      1.00000000      1.00000000      1.00000000      1.00000000      1.00000000      1.00000000      1.00000000      1.00000000      1.00000000      1.00000000      1.00000000      1.00000000      1.00000000      1.00000000      1.00000000      1.00000000      1.00000000      1.00000000      1.00000000
      1.00000000      0.60000000      0.60000000      0.60000000      0.60000000      0.60000000      0.60000000      0.60000000      0.60000000      0.60000000      0.60000000      0.60000000      0.60000000      0.60000000      0.60000000      0.60000000      0.60000000      0.60000000      0.60000000      0.60000000
      0.60000000      0.60000000      0.60000000      0.60000000      0.60000000      0.60000000      0.60000000      0.60000000      0.60000000      0.60000000      0.60000000      0.60000000      0.60000000      0.60000000      0.60000000      0.60000000      0.60000000      0.60000000      0.60000000      0.60000000
      0.60000000      0.60000000      0.60000000      0.60000000      0.60000000      0.60000000      0.60000000      0.60000000      0.60000000      0.60000000      0.60000000      0.60000000      0.60000000      0.60000000      0.60000000      0.60000000      0.60000000      0.60000000      0.60000000      0.60000000
      0.60000000      0.60000000      0.60000000      0.60000000      0.60000000      0.60000000      0.60000000      0.60000000      0.60000000      0.60000000      0.60000000      0.60000000      0.60000000      0.60000000      0.60000000      0.60000000      0.60000000      0.60000000      0.60000000</v>
  <i type="logical" name="LREAL"> F  </i>
  <i type="int" name="ISMEAR">     0</i>
  <i name="SIGMA">      0.05000000</i>
  <i type="int" name="LMAXMIX">     6</i>
  <i type="logical" name="LWAVE"> F  </i>
  <i type="logical" name="LCHARG"> F  </i>
  <i type="logical" name="LASPH"> T  </i>
  <i type="logical" name="LDAU"> T  </i>
  <i type="int" name="LDAUTYPE">     2</i>
  <v type="int" name="LDAUL">     3    -1     2</v>
  <v name="LDAUU">      5.00000000      0.00000000      2.00000000</v>
  <v name="LDAUJ">      0.00000000      0.00000000      0.00000000</v>
 </incar>
 <primitive_cell>
  <structure name="primitive_cell" >
   <crystal>
    <varray name="basis" >
     <v>      11.59820000       0.00000000       0.00000000 </v>
     <v>      -5.79910000      10.04433584       0.00000000 </v>
     <v>       0.00000000       0.00000000      21.04820000 </v>
    </varray>
    <i name="volume">   2452.03565189 </i>
    <varray name="rec_basis" >
     <v>       0.08622028       0.04977930       0.00000000 </v>
     <v>       0.00000000       0.09955860       0.00000000 </v>
     <v>       0.00000000       0.00000000       0.04751000 </v>
    </varray>
   </crystal>
   <varray name="positions" >
    <v>       0.00000000       0.00000000       0.45993000 </v>
    <v>       0.22222000       0.11111000       0.30996000 </v>
    <v>       0.11111000       0.22222000       0.15999000 </v>
    <v>       0.55556000       0.11111000       0.30996000 </v>
    <v>       0.44444000       0.22222000       0.15999000 </v>
    <v>       0.88889000       0.11111000       0.30996000 </v>
    <v>       0.77778000       0.22222000       0.15999000 </v>
    <v>       1.00000000       0.33333000       0.45993000 </v>
    <v>       0.22222000       0.44444000       0.30996000 </v>
    <v>       0.11111000       0.55556000       0.15999000 </v>
    <v>       0.55556000       0.44444000       0.30996000 </v>
    <v>       0.44444000       0.55556000       0.15999000 </v>
    <v>       0.88889000       0.44444000       0.30996000 </v>
    <v>       0.77778000       0.55556000       0.15999000 </v>
    <v>       1.00000000       0.66667000       0.45993000 </v>
    <v>       0.22222000       0.77778000       0.30996000 </v>
    <v>       0.11111000       0.88889000       0.15999000 </v>
    <v>       0.55556000       0.77778000       0.30996000 </v>
    <v>       0.44444000       0.88889000       0.15999000 </v>
    <v>       0.88889000       0.77778000       0.30996000 </v>
    <v>       0.77778000       0.88889000       0.15999000 </v>
    <v>       0.00000000       0.00000000       0.12250000 </v>
    <v>       0.00000000       0.00000000       0.57241000 </v>
    <v>       0.11111000       0.22222000       0.27247000 </v>
    <v>       0.22222000       0.11111000       0.42244000 </v>
    <v>       0.11111000       0.22222000       0.04751000 </v>
    <v>       0.11111000       0.22222000       0.49742000 </v>
    <v>       0.00000000       0.00000000       0.34745000 </v>
    <v>       0.22222000       0.11111000       0.19748000 </v>
    <v>       0.33333000       0.00000000       0.12250000 </v>
    <v>       0.33333000       0.00000000       0.57241000 </v>
    <v>       0.44444000       0.22222000       0.27247000 </v>
    <v>       0.55556000       0.11111000       0.42244000 </v>
    <v>       0.44444000       0.22222000       0.04751000 </v>
    <v>       0.44444000       0.22222000       0.49742000 </v>
    <v>       0.33333000       0.00000000       0.34745000 </v>
    <v>       0.55556000       0.11111000       0.19748000 </v>
    <v>       0.66667000       0.00000000       0.12250000 </v>
    <v>       0.66667000       0.00000000       0.57241000 </v>
    <v>       0.77778000       0.22222000       0.27247000 </v>
    <v>       0.88889000       0.11111000       0.42244000 </v>
    <v>       0.77778000       0.22222000       0.04751000 </v>
    <v>       0.77778000       0.22222000       0.49742000 </v>
    <v>       0.66667000       0.00000000       0.34745000 </v>
    <v>       0.88889000       0.11111000       0.19748000 </v>
    <v>       1.00000000       0.33333000       0.12250000 </v>
    <v>       1.00000000       0.33333000       0.57241000 </v>
    <v>       0.11111000       0.55556000       0.27247000 </v>
    <v>       0.22222000       0.44444000       0.42244000 </v>
    <v>       0.11111000       0.55556000       0.04751000 </v>
    <v>       0.11111000       0.55556000       0.49742000 </v>
    <v>       1.00000000       0.33333000       0.34745000 </v>
    <v>       0.22222000       0.44444000       0.19748000 </v>
    <v>       0.33333000       0.33333000       0.12250000 </v>
    <v>       0.33333000       0.33333000       0.57241000 </v>
    <v>       0.44444000       0.55556000       0.27247000 </v>
    <v>       0.55556000       0.44444000       0.42244000 </v>
    <v>       0.44444000       0.55556000       0.04751000 </v>
    <v>       0.44444000       0.55556000       0.49742000 </v>
    <v>       0.33333000       0.33333000       0.34745000 </v>
    <v>       0.55556000       0.44444000       0.19748000 </v>
    <v>       0.66667000       0.33333000       0.12250000 </v>
    <v>       0.66667000       0.33333000       0.57241000 </v>
    <v>       0.77778000       0.55556000       0.27247000 </v>
    <v>       0.88889000       0.44444000       0.42244000 </v>
    <v>       0.77778000       0.55556000       0.04751000 </v>
    <v>       0.77778000       0.55556000       0.49742000 </v>
    <v>       0.66667000       0.33333000       0.34745000 </v>
    <v>       0.88889000       0.44444000       0.19748000 </v>
    <v>       1.00000000       0.66667000       0.12250000 </v>
    <v>       1.00000000       0.66667000       0.57241000 </v>
    <v>       0.11111000       0.88889000       0.27247000 </v>
    <v>       0.22222000       0.77778000       0.42244000 </v>
    <v>       0.11111000       0.88889000       0.04751000 </v>
    <v>       0.11111000       0.88889000       0.49742000 </v>
    <v>       1.00000000       0.66667000       0.34745000 </v>
    <v>       0.22222000       0.77778000       0.19748000 </v>
    <v>       0.33333000       0.66667000       0.12250000 </v>
    <v>       0.33333000       0.66667000       0.57241000 </v>
    <v>       0.44444000       0.88889000       0.27247000 </v>
    <v>       0.55556000       0.77778000       0.42244000 </v>
    <v>       0.44444000       0.88889000       0.04751000 </v>
    <v>       0.44444000       0.88889000       0.49742000 </v>
    <v>       0.33333000       0.66667000       0.34745000 </v>
    <v>       0.55556000       0.77778000       0.19748000 </v>
    <v>       0.66667000       0.66667000       0.12250000 </v>
    <v>       0.66667000       0.66667000       0.57241000 </v>
    <v>       0.77778000       0.88889000       0.27247000 </v>
    <v>       0.88889000       0.77778000       0.42244000 </v>
    <v>       0.77778000       0.88889000       0.04751000 </v>
    <v>       0.77778000       0.88889000       0.49742000 </v>
    <v>       0.66667000       0.66667000       0.34745000 </v>
    <v>       0.88889000       0.77778000       0.19748000 </v>
    <v>       0.33333000       0.00000000       0.45993000 </v>
    <v>       0.66667000       0.00000000       0.45993000 </v>
    <v>       0.33333000       0.33333000       0.45993000 </v>
    <v>       0.66667000       0.33333000       0.45993000 </v>
    <v>       0.33333000       0.66667000       0.45993000 </v>
    <v>       0.66667000       0.66667000       0.45993000 </v>
   </varray>
  </structure>
  <varray name="primitive_index" >
   <v type="int" >        1 </v>
   <v type="int" >        2 </v>
   <v type="int" >        3 </v>
   <v type="int" >        4 </v>
   <v type="int" >        5 </v>
   <v type="int" >        6 </v>
   <v type="int" >        7 </v>
   <v type="int" >        8 </v>
   <v type="int" >        9 </v>
   <v type="int" >       10 </v>
   <v type="int" >       11 </v>
   <v type="int" >       12 </v>
   <v type="int" >       13 </v>
   <v type="int" >       14 </v>
   <v type="int" >       15 </v>
   <v type="int" >       16 </v>
   <v type="int" >       17 </v>
   <v type="int" >       18 </v>
   <v type="int" >       19 </v>
   <v type="int" >       20 </v>
   <v type="int" >       21 </v>
   <v type="int" >       22 </v>
   <v type="int" >       23 </v>
   <v type="int" >       24 </v>
   <v type="int" >       25 </v>
   <v type="int" >       26 </v>
   <v type="int" >       27 </v>
   <v type="int" >       28 </v>
   <v type="int" >       29 </v>
   <v type="int" >       30 </v>
   <v type="int" >       31 </v>
   <v type="int" >       32 </v>
   <v type="int" >       33 </v>
   <v type="int" >       34 </v>
   <v type="int" >       35 </v>
   <v type="int" >       36 </v>
   <v type="int" >       37 </v>
   <v type="int" >       38 </v>
   <v type="int" >       39 </v>
   <v type="int" >       40 </v>
   <v type="int" >       41 </v>
   <v type="int" >       42 </v>
   <v type="int" >       43 </v>
   <v type="int" >       44 </v>
   <v type="int" >       45 </v>
   <v type="int" >       46 </v>
   <v type="int" >       47 </v>
   <v type="int" >       48 </v>
   <v type="int" >       49 </v>
   <v type="int" >       50 </v>
   <v type="int" >       51 </v>
   <v type="int" >       52 </v>
   <v type="int" >       53 </v>
   <v type="int" >       54 </v>
   <v type="int" >       55 </v>
   <v type="int" >       56 </v>
   <v type="int" >       57 </v>
   <v type="int" >       58 </v>
   <v type="int" >       59 </v>
   <v type="int" >       60 </v>
   <v type="int" >       61 </v>
   <v type="int" >       62 </v>
   <v type="int" >       63 </v>
   <v type="int" >       64 </v>
   <v type="int" >       65 </v>
   <v type="int" >       66 </v>
   <v type="int" >       67 </v>
   <v type="int" >       68 </v>
   <v type="int" >       69 </v>
   <v type="int" >       70 </v>
   <v type="int" >       71 </v>
   <v type="int" >       72 </v>
   <v type="int" >       73 </v>
   <v type="int" >       74 </v>
   <v type="int" >       75 </v>
   <v type="int" >       76 </v>
   <v type="int" >       77 </v>
   <v type="int" >       78 </v>
   <v type="int" >       79 </v>
   <v type="int" >       80 </v>
   <v type="int" >       81 </v>
   <v type="int" >       82 </v>
   <v type="int" >       83 </v>
   <v type="int" >       84 </v>
   <v type="int" >       85 </v>
   <v type="int" >       86 </v>
   <v type="int" >       87 </v>
   <v type="int" >       88 </v>
   <v type="int" >       89 </v>
   <v type="int" >       90 </v>
   <v type="int" >       91 </v>
   <v type="int" >       92 </v>
   <v type="int" >       93 </v>
   <v type="int" >       94 </v>
   <v type="int" >       95 </v>
   <v type="int" >       96 </v>
   <v type="int" >       97 </v>
   <v type="int" >       98 </v>
   <v type="int" >       99 </v>
  </varray>
 </primitive_cell>
 <kpoints>
  <generation param="Monkhorst-Pack">
   <v type="int" name="divisions">       3        3        1 </v>
   <v name="usershift">      0.00000000       0.00000000       0.00000000 </v>
   <v name="genvec1">      0.33333333      -0.00000000       0.00000000 </v>
   <v name="genvec2">      0.00000000       0.33333333       0.00000000 </v>
   <v name="genvec3">      0.00000000       0.00000000       1.00000000 </v>
   <v name="shift">      0.00000000       0.00000000       0.00000000 </v>
  </generation>
  <varray name="kpointlist" >
   <v>       0.00000000       0.00000000       0.00000000 </v>
   <v>       0.33333333      -0.00000000       0.00000000 </v>
   <v>       0.00000000       0.33333333       0.00000000 </v>
   <v>      -0.33333333       0.33333333       0.00000000 </v>
   <v>       0.33333333       0.33333333       0.00000000 </v>
  </varray>
  <varray name="weights" >
   <v>       0.11111111 </v>
   <v>       0.22222222 </v>
   <v>       0.22222222 </v>
   <v>       0.22222222 </v>
   <v>       0.22222222 </v>
  </varray>
 </kpoints>
 <parameters>
  <separator name="general" >
   <i type="string" name="SYSTEM">unknown system</i>
   <i type="logical" name="LCOMPAT"> F  </i>
  </separator>
  <separator name="electronic" >
   <i type="string" name="PREC">accura</i>
   <i name="ENMAX">    520.00000000</i>
   <i name="ENAUG">    605.39200000</i>
   <i name="EDIFF">      0.00000100</i>
   <i type="int" name="IALGO">    38</i>
   <i type="int" name="IWAVPR">    11</i>
   <i type="int" name="NBANDS">   480</i>
   <i type="int" name="NBANDSLOW">    -1</i>
   <i type="int" name="NBANDSHIGH">    -1</i>
   <i name="NELECT">    738.00000000</i>
   <i type="int" name="TURBO">     0</i>
   <i type="int" name="IRESTART">     0</i>
   <i type="int" name="NREBOOT">     0</i>
   <i type="int" name="NMIN">     0</i>
   <i name="EREF">      0.00000000</i>
   <separator name="electronic smearing" >
    <i type="int" name="ISMEAR">     0</i>
    <i name="SIGMA">      0.05000000</i>
    <i name="KSPACING">      0.50000000</i>
    <i type="logical" name="KGAMMA"> T  </i>
    <i type="logical" name="KBLOWUP"> T  </i>
   </separator>
   <separator name="electronic projectors" >
    <i type="logical" name="LREAL"> F  </i>
    <v name="ROPT">      0.00000000      0.00000000      0.00000000</v>
    <i type="int" name="LMAXPAW">  -100</i>
    <i type="int" name="LMAXMIX">     6</i>
    <i type="logical" name="NLSPLINE"> F  </i>
   </separator>
   <separator name="electronic startup" >
    <i type="int" name="ISTART">     0</i>
    <i type="int" name="ICHARG">     2</i>
    <i type="int" name="INIWAV">     1</i>
   </separator>
   <separator name="electronic spin" >
    <i type="int" name="ISPIN">     2</i>
    <i type="logical" name="LNONCOLLINEAR"> F  </i>
    <v name="MAGMOM">      1.00000000      1.00000000      1.00000000      1.00000000      1.00000000      1.00000000      1.00000000      1.00000000      1.00000000      1.00000000      1.00000000      1.00000000      1.00000000      1.00000000      1.00000000      1.00000000      1.00000000      1.00000000      1.00000000      1.00000000
      1.00000000      0.60000000      0.60000000      0.60000000      0.60000000      0.60000000      0.60000000      0.60000000      0.60000000      0.60000000      0.60000000      0.60000000      0.60000000      0.60000000      0.60000000      0.60000000      0.60000000      0.60000000      0.60000000      0.60000000
      0.60000000      0.60000000      0.60000000      0.60000000      0.60000000      0.60000000      0.60000000      0.60000000      0.60000000      0.60000000      0.60000000      0.60000000      0.60000000      0.60000000      0.60000000      0.60000000      0.60000000      0.60000000      0.60000000      0.60000000
      0.60000000      0.60000000      0.60000000      0.60000000      0.60000000      0.60000000      0.60000000      0.60000000      0.60000000      0.60000000      0.60000000      0.60000000      0.60000000      0.60000000      0.60000000      0.60000000      0.60000000      0.60000000      0.60000000      0.60000000
      0.60000000      0.60000000      0.60000000      0.60000000      0.60000000      0.60000000      0.60000000      0.60000000      0.60000000      0.60000000      0.60000000      0.60000000      0.60000000      0.60000000      0.60000000      0.60000000      0.60000000      0.60000000      0.60000000</v>
    <i name="NUPDOWN">     -1.00000000</i>
    <i type="logical" name="LSORBIT"> F  </i>
    <v name="SAXIS">      0.00000000      0.00000000      1.00000000</v>
    <i type="logical" name="LSPIRAL"> F  </i>
    <v name="QSPIRAL">      0.00000000      0.00000000      0.00000000</v>
    <i type="logical" name="LZEROZ"> F  </i>
   </separator>
   <separator name="electronic exchange-correlation" >
    <i type="logical" name="LASPH"> T  </i>
   </separator>
   <separator name="electronic convergence" >
    <i type="int" name="NELM">    90</i>
    <i type="int" name="NELMDL">     0</i>
    <i type="int" name="NELMIN">     6</i>
    <i name="ENINI">    520.00000000</i>
    <separator name="electronic convergence detail" >
     <i type="logical" name="LDIAG"> T  </i>
     <i type="logical" name="LSUBROT"> F  </i>
     <i name="WEIMIN">      0.00100000</i>
     <i name="EBREAK">      0.00000000</i>
     <i name="DEPER">      0.30000000</i>
     <i type="int" name="NRMM">     4</i>
     <i name="TIME">      0.40000000</i>
    </separator>
   </separator>
   <separator name="electronic mixer" >
    <i name="AMIX">      0.40000000</i>
    <i name="BMIX">      1.00000000</i>
    <i name="AMIN">      0.10000000</i>
    <i name="AMIX_MAG">      1.60000000</i>
    <i name="BMIX_MAG">      1.00000000</i>
    <separator name="electronic mixer details" >
     <i type="int" name="IMIX">     4</i>
     <i type="logical" name="MIXFIRST"> F  </i>
     <i type="int" name="MAXMIX">   -45</i>
     <i name="WC">    100.00000000</i>
     <i type="int" name="INIMIX">     1</i>
     <i type="int" name="MIXPRE">     1</i>
     <i type="int" name="MREMOVE">     5</i>
    </separator>
   </separator>
   <separator name="electronic dipolcorrection" >
    <i type="logical" name="LDIPOL"> F  </i>
    <i type="logical" name="LMONO"> F  </i>
    <i type="int" name="IDIPOL">     0</i>
    <i name="EPSILON">      1.00000000</i>
    <v name="DIPOL">   -100.00000000   -100.00000000   -100.00000000</v>
    <i name="EFIELD">      0.00000000</i>
    <i type="logical" name="LVACPOTAV"> F  </i>
   </separator>
  </separator>
  <separator name="grids" >
   <i type="int" name="NGX">    90</i>
   <i type="int" name="NGY">    90</i>
   <i type="int" name="NGZ">   160</i>
   <i type="int" name="NGXF">   180</i>
   <i type="int" name="NGYF">   180</i>
   <i type="int" name="NGZF">   320</i>
   <i type="logical" name="ADDGRID"> T  </i>
  </separator>
  <separator name="ionic" >
   <i type="int" name="NSW">   300</i>
   <i type="int" name="IBRION">     2</i>
   <i type="int" name="MDALGO">     0</i>
   <i type="int" name="ISIF">     2</i>
   <i name="PSTRESS">      0.00000000</i>
   <i name="EDIFFG">     -0.02000000</i>
   <i type="int" name="NFREE">     1</i>
   <i name="POTIM">      0.50000000</i>
   <i name="SMASS">     -3.00000000</i>
   <i name="SCALEE">      1.00000000</i>
  </separator>
  <separator name="ionic md" >
   <i name="TEBEG">      0.00010000</i>
   <i name="TEEND">      0.00010000</i>
   <i type="int" name="NBLOCK">     1</i>
   <i type="int" name="KBLOCK">   300</i>
   <i type="int" name="NPACO">   256</i>
   <i name="APACO">     10.00000000</i>
  </separator>
  <separator name="symmetry" >
   <i type="int" name="ISYM">     2</i>
   <i name="SYMPREC">      0.00001000</i>
  </separator>
  <separator name="dos" >
   <i type="int" name="LORBIT">     0</i>
   <v name="RWIGS">     -1.00000000     -1.00000000     -1.00000000</v>
   <i type="int" name="NEDOS">   301</i>
   <i name="EMIN">     10.00000000</i>
   <i name="EMAX">    -10.00000000</i>
   <i name="EFERMI">      0.00000000</i>
  </separator>
  <separator name="writing" >
   <i type="int" name="NWRITE">     2</i>
   <i type="logical" name="LWAVE"> F  </i>
   <i type="logical" name="LDOWNSAMPLE"> F  </i>
   <i type="logical" name="LCHARG"> F  </i>
   <i type="logical" name="LPARD"> F  </i>
   <i type="logical" name="LVTOT"> F  </i>
   <i type="logical" name="LVHAR"> F  </i>
   <i type="logical" name="LELF"> F  </i>
   <i type="logical" name="LOPTICS"> F  </i>
   <v name="STM">      0.00000000      0.00000000      0.00000000      0.00000000      0.00000000      0.00000000      0.00000000</v>
  </separator>
  <separator name="performance" >
   <i type="int" name="NPAR">    48</i>
   <i type="int" name="NSIM">     4</i>
   <i type="int" name="NBLK">    -1</i>
   <i type="logical" name="LPLANE"> T  </i>
   <i type="logical" name="LSCALAPACK"> T  </i>
   <i type="logical" name="LSCAAWARE"> T  </i>
   <i type="logical" name="LSCALU"> F  </i>
   <i type="logical" name="LASYNC"> F  </i>
   <i type="logical" name="LORBITALREAL"> F  </i>
  </separator>
  <separator name="miscellaneous" >
   <i type="int" name="IDIOT">     3</i>
   <i type="int" name="PHON_NSTRUCT">    -1</i>
   <i type="logical" name="LMUSIC"> F  </i>
   <v name="POMASS">    140.11500000     16.00000000    192.22000000</v>
   <v name="DARWINR">      0.00000000      0.00000000      0.00000000</v>
   <v name="DARWINV">      1.00000000      1.00000000      1.00000000</v>
   <i type="logical" name="LCORR"> T  </i>
  </separator>
  <i type="logical" name="GGA_COMPAT"> T  </i>
  <i type="logical" name="LBERRY"> F  </i>
  <i type="int" name="ICORELEVEL">     0</i>
  <i type="logical" name="LDAU"> T  </i>
  <v type="int" name="LDAUTYPE">     2</v>
  <v type="int" name="LDAUL">     3</v>
  <v name="LDAUU">      5.00000000</v>
  <v name="LDAUJ">      0.00000000</v>
  <i type="int" name="LDAUPRINT">     0</i>
  <i type="int" name="I_CONSTRAINED_M">     0</i>
  <separator name="electronic exchange-correlation" >
   <i type="string" name="GGA    ">PE</i>
   <i type="string" name="XC_C">1</i>
   <i type="int" name="VOSKOWN">     0</i>
   <i type="logical" name="LHFCALC"> F  </i>
   <i type="string" name="PRECFOCK"></i>
   <i type="logical" name="LSYMGRAD"> F  </i>
   <i type="logical" name="LHFONE"> F  </i>
   <i type="logical" name="LRHFCALC"> F  </i>
   <i type="logical" name="LTHOMAS"> F  </i>
   <i type="logical" name="LMODELHF"> F  </i>
   <i type="logical" name="LFOCKACE"> F  </i>
   <i name="ENCUT4O">     -1.00000000</i>
   <i type="int" name="EXXOEP">     0</i>
   <i type="int" name="FOURORBIT">     0</i>
   <i name="AEXX">      0.00000000</i>
   <i name="HFALPHA">      0.00000000</i>
   <i name="MCALPHA">      0.00000000</i>
   <i name="ALDAX">      1.00000000</i>
   <i name="AGGAX">      1.00000000</i>
   <i name="AMGGAX">      1.00000000</i>
   <i name="ALDAC">      1.00000000</i>
   <i name="AGGAC">      1.00000000</i>
   <i name="AMGGAC">      1.00000000</i>
   <i type="int" name="NKREDX">     1</i>
   <i type="int" name="NKREDY">     1</i>
   <i type="int" name="NKREDZ">     1</i>
   <i type="logical" name="SHIFTRED"> F  </i>
   <i type="logical" name="ODDONLY"> F  </i>
   <i type="logical" name="EVENONLY"> F  </i>
   <i type="int" name="LMAXFOCK">     0</i>
   <i type="int" name="NMAXFOCKAE">     0</i>
   <i type="logical" name="LFOCKAEDFT"> F  </i>
   <i name="HFSCREEN">      0.00000000</i>
   <i name="HFSCREENC">      0.00000000</i>
   <i type="int" name="NBANDSGWLOW">     0</i>
  </separator>
  <separator name="vdW DFT" >
   <i type="logical" name="LUSE_VDW"> F  </i>
   <i type="int" name="IVDW_NL">    -1</i>
   <i type="logical" name="LSPIN_VDW"> F  </i>
   <i name="ZAB_VDW">     -0.84910000</i>
   <i name="GAMMA_VDW">      1.39626340</i>
   <i name="ALPHA_VDW">      0.00000000</i>
   <i name="PARAM1">      0.12340000</i>
   <i name="PARAM2">      1.00000000</i>
   <i name="BPARAM">      6.30000000</i>
   <i name="CPARAM">      0.00930000</i>
  </separator>
  <separator name="model GW" >
   <i type="int" name="MODEL_GW">     0</i>
   <i name="MODEL_EPS0">     14.86082213</i>
   <i name="MODEL_ALPHA">      1.00000000</i>
  </separator>
  <separator name="linear response parameters" >
   <i type="logical" name="LEPSILON"> F  </i>
   <i type="logical" name="LRPA"> F  </i>
   <i type="logical" name="LNABLA"> F  </i>
   <i type="logical" name="LVEL"> F  </i>
   <i name="CSHIFT">      0.10000000</i>
   <i name="OMEGAMAX">     -1.00000000</i>
   <i name="DEG_THRESHOLD">      0.00200000</i>
   <i name="RTIME">     -0.10000000</i>
   <i name="WPLASMAI">      0.00000000</i>
   <v name="DFIELD">      0.00000000      0.00000000      0.00000000</v>
   <v name="WPLASMA">      0.00000000      0.00000000      0.00000000      0.00000000      0.00000000      0.00000000      0.00000000      0.00000000      0.00000000</v>
  </separator>
  <separator name="orbital magnetization" >
   <i type="logical" name="NUCIND"> F  </i>
   <v name="MAGPOS">      0.00000000      0.00000000      0.00000000</v>
   <i type="logical" name="LNICSALL"> T  </i>
   <i type="logical" name="ORBITALMAG"> F  </i>
   <i type="logical" name="LMAGBLOCH"> F  </i>
   <i type="logical" name="LCHIMAG"> F  </i>
   <i type="logical" name="LGAUGE"> T  </i>
   <i type="int" name="MAGATOM">     0</i>
   <v name="MAGDIPOL">      0.00000000      0.00000000      0.00000000</v>
   <v name="AVECCONST">      0.00000000      0.00000000      0.00000000</v>
  </separator>
  <separator name="response functions" >
   <i type="logical" name="LALL_IN_ONE"> F  </i>
   <i type="int" name="IALL_IN_ONE">    -1</i>
   <i type="int" name="NBANDS_WAVE">    -1</i>
   <i type="logical" name="LFINITE_TEMPERATURE"> F  </i>
   <i type="logical" name="LADDER"> F  </i>
   <i type="logical" name="LRPAFORCE"> F  </i>
   <i type="logical" name="LFXC"> F  </i>
   <i type="logical" name="LHARTREE"> T  </i>
   <i type="int" name="IBSE">     0</i>
   <v type="int" name="KPOINT">    -1     0     0     0</v>
   <i type="logical" name="LTCTC"> F  </i>
   <i type="logical" name="LTCTE"> F  </i>
   <i type="logical" name="LTETE"> F  </i>
   <i type="logical" name="LTRIPLET"> F  </i>
   <i type="logical" name="LFXCEPS"> F  </i>
   <i type="logical" name="LFXHEG"> F  </i>
   <i type="int" name="NATURALO">     2</i>
   <i type="logical" name="LHOLEGF"> F  </i>
   <i type="logical" name="L2ORDER"> F  </i>
   <i type="logical" name="LDMP1"> F  </i>
   <i type="logical" name="LMP2LT"> F  </i>
   <i type="logical" name="LSMP2LT"> F  </i>
   <i type="logical" name="LGWLF"> F  </i>
   <i name="ENCUTGW">     -1.60000002</i>
   <i name="ENCUTGWSOFT">     -1.60000002</i>
   <i name="ENCUTLF">     -1.00000000</i>
   <i type="logical" name="ESF_SPLINES"> F  </i>
   <i name="ESF_CONV">      0.01000000</i>
   <i type="int" name="ESF_NINTER">    15</i>
   <i type="int" name="LMAXMP2">    -1</i>
   <i name="SCISSOR">      0.00000000</i>
   <i type="int" name="NOMEGA">     0</i>
   <i type="int" name="NOMEGAR">     0</i>
   <i type="int" name="NBANDSGW">    -1</i>
   <i type="int" name="NBANDSO">    -1</i>
   <i type="int" name="NBANDSV">    -1</i>
   <i type="int" name="NELMGW">     1</i>
   <i type="int" name="NELMHF">     1</i>
   <i type="int" name="DIM">     3</i>
   <i type="int" name="IESPILON">     4</i>
   <i type="int" name="ANTIRES">     0</i>
   <i name="OMEGAMAX">    -30.00000000</i>
   <i name="OMEGAMIN">    -30.00000000</i>
   <i name="OMEGATL">   -200.00000000</i>
   <i type="int" name="OMEGAGRID">     0</i>
   <i name="CSHIFT">     -0.10000000</i>
   <i type="logical" name="LSELFENERGY"> F  </i>
   <i type="logical" name="LSPECTRAL"> F  </i>
   <i type="logical" name="LSPECTRALGW"> F  </i>
   <i type="logical" name="LSINGLES"> F  </i>
   <i type="logical" name="LFERMIGW"> F  </i>
   <i type="logical" name="ODDONLYGW"> F  </i>
   <i type="logical" name="EVENONLYGW"> F  </i>
   <i type="int" name="NKREDLFX">     1</i>
   <i type="int" name="NKREDLFY">     1</i>
   <i type="int" name="NKREDLFZ">     1</i>
   <i type="int" name="MAXMEM">  2800</i>
   <i type="int" name="TELESCOPE">     0</i>
   <i type="int" name="NTAUPAR">    -1</i>
   <i type="int" name="NOMEGAPAR">    -1</i>
   <i name="DAMP_NEWTON">      0.80000001</i>
   <i name="LAMBDA">      1.00000000</i>
  </separator>
  <separator name="External order field" >
   <i name="OFIELD_KAPPA">      0.00000000</i>
   <v name="OFIELD_K">      0.00000000      0.00000000      0.00000000</v>
   <i name="OFIELD_Q6_NEAR">      0.00000000</i>
   <i name="OFIELD_Q6_FAR">      0.00000000</i>
   <i name="OFIELD_A">      0.00000000</i>
  </separator>
  <separator name="optional k-points parameters" >
   <i type="int" name="KPOINTS_OPT_MODE">     1</i>
   <i type="logical" name="LKPOINTS_OPT"> F  </i>
  </separator>
 </parameters>
 <atominfo>
  <atoms>      99 </atoms>
  <types>       3 </types>
  <array name="atoms" >
   <dimension dim="1">ion</dimension>
   <field type="string">element</field>
   <field type="int">atomtype</field>
   <set>
    <rc><c>Ce</c><c>   1</c></rc>
    <rc><c>Ce</c><c>   1</c></rc>
    <rc><c>Ce</c><c>   1</c></rc>
    <rc><c>Ce</c><c>   1</c></rc>
    <rc><c>Ce</c><c>   1</c></rc>
    <rc><c>Ce</c><c>   1</c></rc>
    <rc><c>Ce</c><c>   1</c></rc>
    <rc><c>Ce</c><c>   1</c></rc>
    <rc><c>Ce</c><c>   1</c></rc>
    <rc><c>Ce</c><c>   1</c></rc>
    <rc><c>Ce</c><c>   1</c></rc>
    <rc><c>Ce</c><c>   1</c></rc>
    <rc><c>Ce</c><c>   1</c></rc>
    <rc><c>Ce</c><c>   1</c></rc>
    <rc><c>Ce</c><c>   1</c></rc>
    <rc><c>Ce</c><c>   1</c></rc>
    <rc><c>Ce</c><c>   1</c></rc>
    <rc><c>Ce</c><c>   1</c></rc>
    <rc><c>Ce</c><c>   1</c></rc>
    <rc><c>Ce</c><c>   1</c></rc>
    <rc><c>Ce</c><c>   1</c></rc>
    <rc><c>O </c><c>   2</c></rc>
    <rc><c>O </c><c>   2</c></rc>
    <rc><c>O </c><c>   2</c></rc>
    <rc><c>O </c><c>   2</c></rc>
    <rc><c>O </c><c>   2</c></rc>
    <rc><c>O </c><c>   2</c></rc>
    <rc><c>O </c><c>   2</c></rc>
    <rc><c>O </c><c>   2</c></rc>
    <rc><c>O </c><c>   2</c></rc>
    <rc><c>O </c><c>   2</c></rc>
    <rc><c>O </c><c>   2</c></rc>
    <rc><c>O </c><c>   2</c></rc>
    <rc><c>O </c><c>   2</c></rc>
    <rc><c>O </c><c>   2</c></rc>
    <rc><c>O </c><c>   2</c></rc>
    <rc><c>O </c><c>   2</c></rc>
    <rc><c>O </c><c>   2</c></rc>
    <rc><c>O </c><c>   2</c></rc>
    <rc><c>O </c><c>   2</c></rc>
    <rc><c>O </c><c>   2</c></rc>
    <rc><c>O </c><c>   2</c></rc>
    <rc><c>O </c><c>   2</c></rc>
    <rc><c>O </c><c>   2</c></rc>
    <rc><c>O </c><c>   2</c></rc>
    <rc><c>O </c><c>   2</c></rc>
    <rc><c>O </c><c>   2</c></rc>
    <rc><c>O </c><c>   2</c></rc>
    <rc><c>O </c><c>   2</c></rc>
    <rc><c>O </c><c>   2</c></rc>
    <rc><c>O </c><c>   2</c></rc>
    <rc><c>O </c><c>   2</c></rc>
    <rc><c>O </c><c>   2</c></rc>
    <rc><c>O </c><c>   2</c></rc>
    <rc><c>O </c><c>   2</c></rc>
    <rc><c>O </c><c>   2</c></rc>
    <rc><c>O </c><c>   2</c></rc>
    <rc><c>O </c><c>   2</c></rc>
    <rc><c>O </c><c>   2</c></rc>
    <rc><c>O </c><c>   2</c></rc>
    <rc><c>O </c><c>   2</c></rc>
    <rc><c>O </c><c>   2</c></rc>
    <rc><c>O </c><c>   2</c></rc>
    <rc><c>O </c><c>   2</c></rc>
    <rc><c>O </c><c>   2</c></rc>
    <rc><c>O </c><c>   2</c></rc>
    <rc><c>O </c><c>   2</c></rc>
    <rc><c>O </c><c>   2</c></rc>
    <rc><c>O </c><c>   2</c></rc>
    <rc><c>O </c><c>   2</c></rc>
    <rc><c>O </c><c>   2</c></rc>
    <rc><c>O </c><c>   2</c></rc>
    <rc><c>O </c><c>   2</c></rc>
    <rc><c>O </c><c>   2</c></rc>
    <rc><c>O </c><c>   2</c></rc>
    <rc><c>O </c><c>   2</c></rc>
    <rc><c>O </c><c>   2</c></rc>
    <rc><c>O </c><c>   2</c></rc>
    <rc><c>O </c><c>   2</c></rc>
    <rc><c>O </c><c>   2</c></rc>
    <rc><c>O </c><c>   2</c></rc>
    <rc><c>O </c><c>   2</c></rc>
    <rc><c>O </c><c>   2</c></rc>
    <rc><c>O </c><c>   2</c></rc>
    <rc><c>O </c><c>   2</c></rc>
    <rc><c>O </c><c>   2</c></rc>
    <rc><c>O </c><c>   2</c></rc>
    <rc><c>O </c><c>   2</c></rc>
    <rc><c>O </c><c>   2</c></rc>
    <rc><c>O </c><c>   2</c></rc>
    <rc><c>O </c><c>   2</c></rc>
    <rc><c>O </c><c>   2</c></rc>
    <rc><c>O </c><c>   2</c></rc>
    <rc><c>Ir</c><c>   3</c></rc>
    <rc><c>Ir</c><c>   3</c></rc>
    <rc><c>Ir</c><c>   3</c></rc>
    <rc><c>Ir</c><c>   3</c></rc>
    <rc><c>Ir</c><c>   3</c></rc>
    <rc><c>Ir</c><c>   3</c></rc>
   </set>
  </array>
  <array name="atomtypes" >
   <dimension dim="1">type</dimension>
   <field type="int">atomspertype</field>
   <field type="string">element</field>
   <field>mass</field>
   <field>valence</field>
   <field type="string">pseudopotential</field>
   <set>
    <rc><c>  21</c><c>Ce</c><c>    140.11500000</c><c>     12.00000000</c><c>  PAW_PBE Ce 23Dec2003                  </c></rc>
    <rc><c>  72</c><c>O </c><c>     16.00000000</c><c>      6.00000000</c><c>  PAW_PBE O 08Apr2002                   </c></rc>
    <rc><c>   6</c><c>Ir</c><c>    192.22000000</c><c>      9.00000000</c><c>  PAW_PBE Ir 06Sep2000                  </c></rc>
   </set>
  </array>
 </atominfo>
 <structure name="initialpos" >
  <crystal>
   <varray name="basis" >
    <v>      11.59820000       0.00000000       0.00000000 </v>
    <v>      -5.79910000      10.04433584       0.00000000 </v>
    <v>       0.00000000       0.00000000      21.04820000 </v>
   </varray>
   <i name="volume">   2452.03565189 </i>
   <varray name="rec_basis" >
    <v>       0.08622028       0.04977930       0.00000000 </v>
    <v>       0.00000000       0.09955860       0.00000000 </v>
    <v>       0.00000000       0.00000000       0.04751000 </v>
   </varray>
  </crystal>
  <varray name="positions" >
   <v>       0.00000000       0.00000000       0.45993000 </v>
   <v>       0.22222000       0.11111000       0.30996000 </v>
   <v>       0.11111000       0.22222000       0.15999000 </v>
   <v>       0.55556000       0.11111000       0.30996000 </v>
   <v>       0.44444000       0.22222000       0.15999000 </v>
   <v>       0.88889000       0.11111000       0.30996000 </v>
   <v>       0.77778000       0.22222000       0.15999000 </v>
   <v>       0.00000000       0.33333000       0.45993000 </v>
   <v>       0.22222000       0.44444000       0.30996000 </v>
   <v>       0.11111000       0.55556000       0.15999000 </v>
   <v>       0.55556000       0.44444000       0.30996000 </v>
   <v>       0.44444000       0.55556000       0.15999000 </v>
   <v>       0.88889000       0.44444000       0.30996000 </v>
   <v>       0.77778000       0.55556000       0.15999000 </v>
   <v>       0.00000000       0.66667000       0.45993000 </v>
   <v>       0.22222000       0.77778000       0.30996000 </v>
   <v>       0.11111000       0.88889000       0.15999000 </v>
   <v>       0.55556000       0.77778000       0.30996000 </v>
   <v>       0.44444000       0.88889000       0.15999000 </v>
   <v>       0.88889000       0.77778000       0.30996000 </v>
   <v>       0.77778000       0.88889000       0.15999000 </v>
   <v>       0.00000000       0.00000000       0.12250000 </v>
   <v>       0.00000000       0.00000000       0.57241000 </v>
   <v>       0.11111000       0.22222000       0.27247000 </v>
   <v>       0.22222000       0.11111000       0.42244000 </v>
   <v>       0.11111000       0.22222000       0.04751000 </v>
   <v>       0.11111000       0.22222000       0.49742000 </v>
   <v>       0.00000000       0.00000000       0.34745000 </v>
   <v>       0.22222000       0.11111000       0.19748000 </v>
   <v>       0.33333000       0.00000000       0.12250000 </v>
   <v>       0.33333000       0.00000000       0.57241000 </v>
   <v>       0.44444000       0.22222000       0.27247000 </v>
   <v>       0.55556000       0.11111000       0.42244000 </v>
   <v>       0.44444000       0.22222000       0.04751000 </v>
   <v>       0.44444000       0.22222000       0.49742000 </v>
   <v>       0.33333000       0.00000000       0.34745000 </v>
   <v>       0.55556000       0.11111000       0.19748000 </v>
   <v>       0.66667000       0.00000000       0.12250000 </v>
   <v>       0.66667000       0.00000000       0.57241000 </v>
   <v>       0.77778000       0.22222000       0.27247000 </v>
   <v>       0.88889000       0.11111000       0.42244000 </v>
   <v>       0.77778000       0.22222000       0.04751000 </v>
   <v>       0.77778000       0.22222000       0.49742000 </v>
   <v>       0.66667000       0.00000000       0.34745000 </v>
   <v>       0.88889000       0.11111000       0.19748000 </v>
   <v>       0.00000000       0.33333000       0.12250000 </v>
   <v>       0.00000000       0.33333000       0.57241000 </v>
   <v>       0.11111000       0.55556000       0.27247000 </v>
   <v>       0.22222000       0.44444000       0.42244000 </v>
   <v>       0.11111000       0.55556000       0.04751000 </v>
   <v>       0.11111000       0.55556000       0.49742000 </v>
   <v>       0.00000000       0.33333000       0.34745000 </v>
   <v>       0.22222000       0.44444000       0.19748000 </v>
   <v>       0.33333000       0.33333000       0.12250000 </v>
   <v>       0.33333000       0.33333000       0.57241000 </v>
   <v>       0.44444000       0.55556000       0.27247000 </v>
   <v>       0.55556000       0.44444000       0.42244000 </v>
   <v>       0.44444000       0.55556000       0.04751000 </v>
   <v>       0.44444000       0.55556000       0.49742000 </v>
   <v>       0.33333000       0.33333000       0.34745000 </v>
   <v>       0.55556000       0.44444000       0.19748000 </v>
   <v>       0.66667000       0.33333000       0.12250000 </v>
   <v>       0.66667000       0.33333000       0.57241000 </v>
   <v>       0.77778000       0.55556000       0.27247000 </v>
   <v>       0.88889000       0.44444000       0.42244000 </v>
   <v>       0.77778000       0.55556000       0.04751000 </v>
   <v>       0.77778000       0.55556000       0.49742000 </v>
   <v>       0.66667000       0.33333000       0.34745000 </v>
   <v>       0.88889000       0.44444000       0.19748000 </v>
   <v>       0.00000000       0.66667000       0.12250000 </v>
   <v>       0.00000000       0.66667000       0.57241000 </v>
   <v>       0.11111000       0.88889000       0.27247000 </v>
   <v>       0.22222000       0.77778000       0.42244000 </v>
   <v>       0.11111000       0.88889000       0.04751000 </v>
   <v>       0.11111000       0.88889000       0.49742000 </v>
   <v>       0.00000000       0.66667000       0.34745000 </v>
   <v>       0.22222000       0.77778000       0.19748000 </v>
   <v>       0.33333000       0.66667000       0.12250000 </v>
   <v>       0.33333000       0.66667000       0.57241000 </v>
   <v>       0.44444000       0.88889000       0.27247000 </v>
   <v>       0.55556000       0.77778000       0.42244000 </v>
   <v>       0.44444000       0.88889000       0.04751000 </v>
   <v>       0.44444000       0.88889000       0.49742000 </v>
   <v>       0.33333000       0.66667000       0.34745000 </v>
   <v>       0.55556000       0.77778000       0.19748000 </v>
   <v>       0.66667000       0.66667000       0.12250000 </v>
   <v>       0.66667000       0.66667000       0.57241000 </v>
   <v>       0.77778000       0.88889000       0.27247000 </v>
   <v>       0.88889000       0.77778000       0.42244000 </v>
   <v>       0.77778000       0.88889000       0.04751000 </v>
   <v>       0.77778000       0.88889000       0.49742000 </v>
   <v>       0.66667000       0.66667000       0.34745000 </v>
   <v>       0.88889000       0.77778000       0.19748000 </v>
   <v>       0.33333000       0.00000000       0.45993000 </v>
   <v>       0.66667000       0.00000000       0.45993000 </v>
   <v>       0.33333000       0.33333000       0.45993000 </v>
   <v>       0.66667000       0.33333000       0.45993000 </v>
   <v>       0.33333000       0.66667000       0.45993000 </v>
   <v>       0.66667000       0.66667000       0.45993000 </v>
  </varray>
  <varray name="selective"  type="logical" >
   <v type="logical" >  T  T  T </v>
   <v type="logical" >  T  T  T </v>
   <v type="logical" >  F  F  F </v>
   <v type="logical" >  T  T  T </v>
   <v type="logical" >  F  F  F </v>
   <v type="logical" >  T  T  T </v>
   <v type="logical" >  F  F  F </v>
   <v type="logical" >  T  T  T </v>
   <v type="logical" >  T  T  T </v>
   <v type="logical" >  F  F  F </v>
   <v type="logical" >  T  T  T </v>
   <v type="logical" >  F  F  F </v>
   <v type="logical" >  T  T  T </v>
   <v type="logical" >  F  F  F </v>
   <v type="logical" >  T  T  T </v>
   <v type="logical" >  T  T  T </v>
   <v type="logical" >  F  F  F </v>
   <v type="logical" >  T  T  T </v>
   <v type="logical" >  F  F  F </v>
   <v type="logical" >  T  T  T </v>
   <v type="logical" >  F  F  F </v>
   <v type="logical" >  F  F  F </v>
   <v type="logical" >  T  T  T </v>
   <v type="logical" >  T  T  T </v>
   <v type="logical" >  T  T  T </v>
   <v type="logical" >  F  F  F </v>
   <v type="logical" >  T  T  T </v>
   <v type="logical" >  T  T  T </v>
   <v type="logical" >  F  F  F </v>
   <v type="logical" >  F  F  F </v>
   <v type="logical" >  T  T  T </v>
   <v type="logical" >  T  T  T </v>
   <v type="logical" >  T  T  T </v>
   <v type="logical" >  F  F  F </v>
   <v type="logical" >  T  T  T </v>
   <v type="logical" >  T  T  T </v>
   <v type="logical" >  F  F  F </v>
   <v type="logical" >  F  F  F </v>
   <v type="logical" >  T  T  T </v>
   <v type="logical" >  T  T  T </v>
   <v type="logical" >  T  T  T </v>
   <v type="logical" >  F  F  F </v>
   <v type="logical" >  T  T  T </v>
   <v type="logical" >  T  T  T </v>
   <v type="logical" >  F  F  F </v>
   <v type="logical" >  F  F  F </v>
   <v type="logical" >  T  T  T </v>
   <v type="logical" >  T  T  T </v>
   <v type="logical" >  T  T  T </v>
   <v type="logical" >  F  F  F </v>
   <v type="logical" >  T  T  T </v>
   <v type="logical" >  T  T  T </v>
   <v type="logical" >  F  F  F </v>
   <v type="logical" >  F  F  F </v>
   <v type="logical" >  T  T  T </v>
   <v type="logical" >  T  T  T </v>
   <v type="logical" >  T  T  T </v>
   <v type="logical" >  F  F  F </v>
   <v type="logical" >  T  T  T </v>
   <v type="logical" >  T  T  T </v>
   <v type="logical" >  F  F  F </v>
   <v type="logical" >  F  F  F </v>
   <v type="logical" >  T  T  T </v>
   <v type="logical" >  T  T  T </v>
   <v type="logical" >  T  T  T </v>
   <v type="logical" >  F  F  F </v>
   <v type="logical" >  T  T  T </v>
   <v type="logical" >  T  T  T </v>
   <v type="logical" >  F  F  F </v>
   <v type="logical" >  F  F  F </v>
   <v type="logical" >  T  T  T </v>
   <v type="logical" >  T  T  T </v>
   <v type="logical" >  T  T  T </v>
   <v type="logical" >  F  F  F </v>
   <v type="logical" >  T  T  T </v>
   <v type="logical" >  T  T  T </v>
   <v type="logical" >  F  F  F </v>
   <v type="logical" >  F  F  F </v>
   <v type="logical" >  T  T  T </v>
   <v type="logical" >  T  T  T </v>
   <v type="logical" >  T  T  T </v>
   <v type="logical" >  F  F  F </v>
   <v type="logical" >  T  T  T </v>
   <v type="logical" >  T  T  T </v>
   <v type="logical" >  F  F  F </v>
   <v type="logical" >  F  F  F </v>
   <v type="logical" >  T  T  T </v>
   <v type="logical" >  T  T  T </v>
   <v type="logical" >  T  T  T </v>
   <v type="logical" >  F  F  F </v>
   <v type="logical" >  T  T  T </v>
   <v type="logical" >  T  T  T </v>
   <v type="logical" >  F  F  F </v>
   <v type="logical" >  T  T  T </v>
   <v type="logical" >  T  T  T </v>
   <v type="logical" >  T  T  T </v>
   <v type="logical" >  T  T  T </v>
   <v type="logical" >  T  T  T </v>
   <v type="logical" >  T  T  T </v>
  </varray>
  <nose>
   <v>      -3.00000000       0.00000000       0.00010000       0.00010000 </v>
  </nose>
 </structure>
 <calculation>
  <scstep>
   <time name="dav">   20.99   21.06</time>
   <time name="total">   22.39   22.46</time>
   <energy>
    <i name="alphaZ">   1839.19756306 </i>
    <i name="ewald"> 117433.23272571 </i>
    <i name="hartreedc">-170540.38508608 </i>
    <i name="XCdc">   1975.89363706 </i>
    <i name="pawpsdc">  46122.55799334 </i>
    <i name="pawaedc"> -45467.04419015 </i>
    <i name="eentropy">     -0.03518372 </i>
    <i name="bandstr">   3257.89116943 </i>
    <i name="atom">  56815.39572979 </i>
    <i name="e_fr_energy">  11436.70435843 </i>
    <i name="e_wo_entrp">  11436.73954215 </i>
    <i name="e_0_energy">  11436.72195029 </i>
   </energy>
  </scstep>
  <scstep>
   <time name="dav">   23.92   23.93</time>
   <time name="total">   23.92   23.93</time>
   <energy>
    <i name="e_fr_energy">   2964.51254494 </i>
    <i name="e_wo_entrp">   2964.67755023 </i>
    <i name="e_0_energy">   2964.59504758 </i>
   </energy>
  </scstep>
  <scstep>
   <time name="dav">   27.48   27.49</time>
   <time name="total">   27.48   27.50</time>
   <energy>
    <i name="e_fr_energy">   -344.15248805 </i>
    <i name="e_wo_entrp">   -344.11371680 </i>
    <i name="e_0_energy">   -344.13310243 </i>
   </energy>
  </scstep>
  <scstep>
   <time name="dav">   28.91   28.93</time>
   <time name="total">   28.91   28.93</time>
   <energy>
    <i name="e_fr_energy">   -861.75254875 </i>
    <i name="e_wo_entrp">   -861.73616276 </i>
    <i name="e_0_energy">   -861.74435575 </i>
   </energy>
  </scstep>
  <scstep>
   <time name="dav">   32.22   32.23</time>
   <time name="total">   33.56   33.58</time>
   <energy>
    <i name="e_fr_energy">   -892.26538311 </i>
    <i name="e_wo_entrp">   -892.18465918 </i>
    <i name="e_0_energy">   -892.22502115 </i>
   </energy>
  </scstep>
  <scstep>
   <time name="dav">   33.15   33.17</time>
   <time name="total">   35.79   35.81</time>
   <energy>
    <i name="e_fr_energy">  -1626.25161998 </i>
    <i name="e_wo_entrp">  -1626.11076475 </i>
    <i name="e_0_energy">  -1626.18119236 </i>
   </energy>
  </scstep>
  <scstep>
   <time name="dav">   31.16   31.18</time>
   <time name="total">   33.85   33.87</time>
   <energy>
    <i name="e_fr_energy">  -1157.62467378 </i>
    <i name="e_wo_entrp">  -1157.40280825 </i>
    <i name="e_0_energy">  -1157.51374101 </i>
   </energy>
  </scstep>
  <scstep>
   <time name="dav">   32.07   32.09</time>
   <time name="total">   34.74   34.76</time>
   <energy>
    <i name="e_fr_energy">  -1473.08333950 </i>
    <i name="e_wo_entrp">  -1472.99405802 </i>
    <i name="e_0_energy">  -1473.03869876 </i>
   </energy>
  </scstep>
  <scstep>
   <time name="dav">   30.50   30.52</time>
   <time name="total">   33.17   33.19</time>
   <energy>
    <i name="e_fr_energy">  -1207.25384052 </i>
    <i name="e_wo_entrp">  -1207.16549171 </i>
    <i name="e_0_energy">  -1207.20966611 </i>
   </energy>
  </scstep>
  <scstep>
   <time name="dav">   31.55   31.57</time>
   <time name="total">   34.24   34.26</time>
   <energy>
    <i name="e_fr_energy">  -1064.63902171 </i>
    <i name="e_wo_entrp">  -1064.53317371 </i>
    <i name="e_0_energy">  -1064.58609771 </i>
   </energy>
  </scstep>
  <scstep>
   <time name="dav">   32.10   32.11</time>
   <time name="total">   34.75   34.77</time>
   <energy>
    <i name="e_fr_energy">   -769.36783487 </i>
    <i name="e_wo_entrp">   -769.28113710 </i>
    <i name="e_0_energy">   -769.32448599 </i>
   </energy>
  </scstep>
  <scstep>
   <time name="dav">   28.99   29.00</time>
   <time name="total">   31.61   31.62</time>
   <energy>
    <i name="e_fr_energy">   -725.83519426 </i>
    <i name="e_wo_entrp">   -725.78271232 </i>
    <i name="e_0_energy">   -725.80895329 </i>
   </energy>
  </scstep>
  <scstep>
   <time name="dav">   31.63   31.65</time>
   <time name="total">   34.25   34.27</time>
   <energy>
    <i name="e_fr_energy">   -719.20076565 </i>
    <i name="e_wo_entrp">   -719.13317410 </i>
    <i name="e_0_energy">   -719.16696987 </i>
   </energy>
  </scstep>
  <scstep>
   <time name="dav">   30.04   30.06</time>
   <time name="total">   32.68   32.70</time>
   <energy>
    <i name="e_fr_energy">   -697.29282340 </i>
    <i name="e_wo_entrp">   -697.19925310 </i>
    <i name="e_0_energy">   -697.24603825 </i>
   </energy>
  </scstep>
  <scstep>
   <time name="dav">   30.61   30.63</time>
   <time name="total">   33.25   33.27</time>
   <energy>
    <i name="e_fr_energy">   -667.67290609 </i>
    <i name="e_wo_entrp">   -667.57132741 </i>
    <i name="e_0_energy">   -667.62211675 </i>
   </energy>
  </scstep>
  <scstep>
   <time name="dav">   32.40   32.42</time>
   <time name="total">   35.04   35.06</time>
   <energy>
    <i name="e_fr_energy">   -649.90376816 </i>
    <i name="e_wo_entrp">   -649.85070105 </i>
    <i name="e_0_energy">   -649.87723460 </i>
   </energy>
  </scstep>
  <scstep>
   <time name="dav">   32.16   32.18</time>
   <time name="total">   34.80   34.82</time>
   <energy>
    <i name="e_fr_energy">   -637.35384347 </i>
    <i name="e_wo_entrp">   -637.22901377 </i>
    <i name="e_0_energy">   -637.29142862 </i>
   </energy>
  </scstep>
  <scstep>
   <time name="dav">   30.95   30.97</time>
   <time name="total">   33.60   33.62</time>
   <energy>
    <i name="e_fr_energy">   -646.20071407 </i>
    <i name="e_wo_entrp">   -646.02497826 </i>
    <i name="e_0_energy">   -646.11284617 </i>
   </energy>
  </scstep>
  <scstep>
   <time name="dav">   26.51   26.52</time>
   <time name="total">   29.14   29.16</time>
   <energy>
    <i name="e_fr_energy">   -621.78404504 </i>
    <i name="e_wo_entrp">   -621.63434084 </i>
    <i name="e_0_energy">   -621.70919294 </i>
   </energy>
  </scstep>
  <scstep>
   <time name="dav">   32.39   32.40</time>
   <time name="total">   35.04   35.06</time>
   <energy>
    <i name="e_fr_energy">   -621.14213233 </i>
    <i name="e_wo_entrp">   -621.02405218 </i>
    <i name="e_0_energy">   -621.08309226 </i>
   </energy>
  </scstep>
  <scstep>
   <time name="dav">   27.90   27.91</time>
   <time name="total">   30.52   30.54</time>
   <energy>
    <i name="e_fr_energy">   -618.12244657 </i>
    <i name="e_wo_entrp">   -618.00208910 </i>
    <i name="e_0_energy">   -618.06226784 </i>
   </energy>
  </scstep>
  <scstep>
   <time name="dav">   27.49   27.51</time>
   <time name="total">   30.12   30.13</time>
   <energy>
    <i name="e_fr_energy">   -619.65666914 </i>
    <i name="e_wo_entrp">   -619.59231326 </i>
    <i name="e_0_energy">   -619.62449120 </i>
   </energy>
  </scstep>
  <scstep>
   <time name="dav">   31.07   31.08</time>
   <time name="total">   33.70   33.72</time>
   <energy>
    <i name="e_fr_energy">   -626.00884055 </i>
    <i name="e_wo_entrp">   -625.96063934 </i>
    <i name="e_0_energy">   -625.98473995 </i>
   </energy>
  </scstep>
  <scstep>
   <time name="dav">   33.26   33.28</time>
   <time name="total">   35.87   35.89</time>
   <energy>
    <i name="e_fr_energy">   -629.17155864 </i>
    <i name="e_wo_entrp">   -629.11451267 </i>
    <i name="e_0_energy">   -629.14303565 </i>
   </energy>
  </scstep>
  <scstep>
   <time name="dav">   31.45   31.47</time>
   <time name="total">   34.08   34.10</time>
   <energy>
    <i name="e_fr_energy">   -631.81595028 </i>
    <i name="e_wo_entrp">   -631.72090618 </i>
    <i name="e_0_energy">   -631.76842823 </i>
   </energy>
  </scstep>
  <scstep>
   <time name="dav">   29.28   29.30</time>
   <time name="total">   31.90   31.92</time>
   <energy>
    <i name="e_fr_energy">   -629.61282502 </i>
    <i name="e_wo_entrp">   -629.54109831 </i>
    <i name="e_0_energy">   -629.57696166 </i>
   </energy>
  </scstep>
  <scstep>
   <time name="dav">   27.80   27.81</time>
   <time name="total">   30.44   30.46</time>
   <energy>
    <i name="e_fr_energy">   -628.72087988 </i>
    <i name="e_wo_entrp">   -628.64266897 </i>
    <i name="e_0_energy">   -628.68177442 </i>
   </energy>
  </scstep>
  <scstep>
   <time name="dav">   33.99   34.01</time>
   <time name="total">   36.63   36.65</time>
   <energy>
    <i name="e_fr_energy">   -629.48944514 </i>
    <i name="e_wo_entrp">   -629.43742394 </i>
    <i name="e_0_energy">   -629.46343454 </i>
   </energy>
  </scstep>
  <scstep>
   <time name="dav">   31.74   31.76</time>
   <time name="total">   34.38   34.40</time>
   <energy>
    <i name="e_fr_energy">   -629.95944350 </i>
    <i name="e_wo_entrp">   -629.90077231 </i>
    <i name="e_0_energy">   -629.93010791 </i>
   </energy>
  </scstep>
  <scstep>
   <time name="dav">   25.43   25.45</time>
   <time name="total">   28.09   28.10</time>
   <energy>
    <i name="e_fr_energy">   -629.94156448 </i>
    <i name="e_wo_entrp">   -629.88355675 </i>
    <i name="e_0_energy">   -629.91256061 </i>
   </energy>
  </scstep>
  <scstep>
   <time name="dav">   29.50   29.52</time>
   <time name="total">   32.18   32.20</time>
   <energy>
    <i name="e_fr_energy">   -630.28759123 </i>
    <i name="e_wo_entrp">   -630.23812263 </i>
    <i name="e_0_energy">   -630.26285693 </i>
   </energy>
  </scstep>
  <scstep>
   <time name="dav">   32.31   32.33</time>
   <time name="total">   34.93   34.95</time>
   <energy>
    <i name="e_fr_energy">   -630.81243980 </i>
    <i name="e_wo_entrp">   -630.76406692 </i>
    <i name="e_0_energy">   -630.78825336 </i>
   </energy>
  </scstep>
  <scstep>
   <time name="dav">   30.83   30.85</time>
   <time name="total">   33.47   33.49</time>
   <energy>
    <i name="e_fr_energy">   -633.39279702 </i>
    <i name="e_wo_entrp">   -633.37341285 </i>
    <i name="e_0_energy">   -633.38310493 </i>
   </energy>
  </scstep>
  <scstep>
   <time name="dav">   30.88   30.90</time>
   <time name="total">   33.52   33.54</time>
   <energy>
    <i name="e_fr_energy">   -631.47446983 </i>
    <i name="e_wo_entrp">   -631.45645967 </i>
    <i name="e_0_energy">   -631.46546475 </i>
   </energy>
  </scstep>
  <scstep>
   <time name="dav">   29.95   29.97</time>
   <time name="total">   32.59   32.61</time>
   <energy>
    <i name="e_fr_energy">   -626.68760597 </i>
    <i name="e_wo_entrp">   -626.65538926 </i>
    <i name="e_0_energy">   -626.67149762 </i>
   </energy>
  </scstep>
  <scstep>
   <time name="dav">   29.61   29.63</time>
   <time name="total">   32.24   32.26</time>
   <energy>
    <i name="e_fr_energy">   -619.29198908 </i>
    <i name="e_wo_entrp">   -619.23934572 </i>
    <i name="e_0_energy">   -619.26566740 </i>
   </energy>
  </scstep>
  <scstep>
   <time name="dav">   32.80   32.82</time>
   <time name="total">   35.45   35.47</time>
   <energy>
    <i name="e_fr_energy">   -613.57776912 </i>
    <i name="e_wo_entrp">   -613.51221437 </i>
    <i name="e_0_energy">   -613.54499175 </i>
   </energy>
  </scstep>
  <scstep>
   <time name="dav">   32.47   32.49</time>
   <time name="total">   35.09   35.10</time>
   <energy>
    <i name="e_fr_energy">   -616.50263738 </i>
    <i name="e_wo_entrp">   -616.42313677 </i>
    <i name="e_0_energy">   -616.46288707 </i>
   </energy>
  </scstep>
  <scstep>
   <time name="dav">   34.95   34.97</time>
   <time name="total">   37.65   37.67</time>
   <energy>
    <i name="e_fr_energy">   -618.71891279 </i>
    <i name="e_wo_entrp">   -618.64380267 </i>
    <i name="e_0_energy">   -618.68135773 </i>
   </energy>
  </scstep>
  <scstep>
   <time name="dav">   31.09   31.11</time>
   <time name="total">   33.74   33.76</time>
   <energy>
    <i name="e_fr_energy">   -621.28995747 </i>
    <i name="e_wo_entrp">   -621.21147968 </i>
    <i name="e_0_energy">   -621.25071857 </i>
   </energy>
  </scstep>
  <scstep>
   <time name="dav">   31.37   31.39</time>
   <time name="total">   34.01   34.02</time>
   <energy>
    <i name="e_fr_energy">   -624.85808187 </i>
    <i name="e_wo_entrp">   -624.78856561 </i>
    <i name="e_0_energy">   -624.82332374 </i>
   </energy>
  </scstep>
  <scstep>
   <time name="dav">   33.10   33.12</time>
   <time name="total">   35.76   35.78</time>
   <energy>
    <i name="e_fr_energy">   -628.71185520 </i>
    <i name="e_wo_entrp">   -628.63564092 </i>
    <i name="e_0_energy">   -628.67374806 </i>
   </energy>
  </scstep>
  <scstep>
   <time name="dav">   32.19   32.21</time>
   <time name="total">   34.85   34.87</time>
   <energy>
    <i name="e_fr_energy">   -630.43569180 </i>
    <i name="e_wo_entrp">   -630.36405941 </i>
    <i name="e_0_energy">   -630.39987561 </i>
   </energy>
  </scstep>
  <scstep>
   <time name="dav">   29.28   29.29</time>
   <time name="total">   31.94   31.96</time>
   <energy>
    <i name="e_fr_energy">   -633.28548002 </i>
    <i name="e_wo_entrp">   -633.22085828 </i>
    <i name="e_0_energy">   -633.25316915 </i>
   </energy>
  </scstep>
  <scstep>
   <time name="dav">   29.44   29.45</time>
   <time name="total">   32.08   32.10</time>
   <energy>
    <i name="e_fr_energy">   -634.82175642 </i>
    <i name="e_wo_entrp">   -634.76789333 </i>
    <i name="e_0_energy">   -634.79482488 </i>
   </energy>
  </scstep>
  <scstep>
   <time name="dav">   31.20   31.21</time>
   <time name="total">   33.83   33.84</time>
   <energy>
    <i name="e_fr_energy">   -634.62081246 </i>
    <i name="e_wo_entrp">   -634.56469009 </i>
    <i name="e_0_energy">   -634.59275128 </i>
   </energy>
  </scstep>
  <scstep>
   <time name="dav">   31.39   31.40</time>
   <time name="total">   34.03   34.04</time>
   <energy>
    <i name="e_fr_energy">   -633.48758366 </i>
    <i name="e_wo_entrp">   -633.43129641 </i>
    <i name="e_0_energy">   -633.45944003 </i>
   </energy>
  </scstep>
  <scstep>
   <time name="dav">   32.48   32.50</time>
   <time name="total">   35.12   35.14</time>
   <energy>
    <i name="e_fr_energy">   -633.00802998 </i>
    <i name="e_wo_entrp">   -632.95153403 </i>
    <i name="e_0_energy">   -632.97978201 </i>
   </energy>
  </scstep>
  <scstep>
   <time name="dav">   30.62   30.64</time>
   <time name="total">   33.25   33.26</time>
   <energy>
    <i name="e_fr_energy">   -631.17980422 </i>
    <i name="e_wo_entrp">   -631.12364742 </i>
    <i name="e_0_energy">   -631.15172582 </i>
   </energy>
  </scstep>
  <scstep>
   <time name="dav">   31.71   31.73</time>
   <time name="total">   34.37   34.38</time>
   <energy>
    <i name="e_fr_energy">   -630.16665194 </i>
    <i name="e_wo_entrp">   -630.11554391 </i>
    <i name="e_0_energy">   -630.14109792 </i>
   </energy>
  </scstep>
  <scstep>
   <time name="dav">   30.67   30.69</time>
   <time name="total">   33.29   33.31</time>
   <energy>
    <i name="e_fr_energy">   -611.24163722 </i>
    <i name="e_wo_entrp">   -611.20191594 </i>
    <i name="e_0_energy">   -611.22177658 </i>
   </energy>
  </scstep>
  <scstep>
   <time name="dav">   30.17   30.18</time>
   <time name="total">   32.79   32.81</time>
   <energy>
    <i name="e_fr_energy">   -609.38235087 </i>
    <i name="e_wo_entrp">   -609.33191339 </i>
    <i name="e_0_energy">   -609.35713213 </i>
   </energy>
  </scstep>
  <scstep>
   <time name="dav">   28.25   28.26</time>
   <time name="total">   30.88   30.90</time>
   <energy>
    <i name="e_fr_energy">   -607.01050868 </i>
    <i name="e_wo_entrp">   -606.97126698 </i>
    <i name="e_0_energy">   -606.99088783 </i>
   </energy>
  </scstep>
  <scstep>
   <time name="dav">   30.33   30.35</time>
   <time name="total">   32.92   32.94</time>
   <energy>
    <i name="e_fr_energy">   -600.97762077 </i>
    <i name="e_wo_entrp">   -600.92281299 </i>
    <i name="e_0_energy">   -600.95021688 </i>
   </energy>
  </scstep>
  <scstep>
   <time name="dav">   30.69   30.71</time>
   <time name="total">   33.29   33.31</time>
   <energy>
    <i name="e_fr_energy">   -600.46166320 </i>
    <i name="e_wo_entrp">   -600.40891543 </i>
    <i name="e_0_energy">   -600.43528931 </i>
   </energy>
  </scstep>
  <scstep>
   <time name="dav">   32.13   32.15</time>
   <time name="total">   34.74   34.76</time>
   <energy>
    <i name="e_fr_energy">   -593.97990649 </i>
    <i name="e_wo_entrp">   -593.91875795 </i>
    <i name="e_0_energy">   -593.94933222 </i>
   </energy>
  </scstep>
  <scstep>
   <time name="dav">   30.43   30.45</time>
   <time name="total">   33.04   33.06</time>
   <energy>
    <i name="e_fr_energy">   -589.65182998 </i>
    <i name="e_wo_entrp">   -589.58575933 </i>
    <i name="e_0_energy">   -589.61879465 </i>
   </energy>
  </scstep>
  <scstep>
   <time name="dav">   30.98   30.99</time>
   <time name="total">   33.60   33.62</time>
   <energy>
    <i name="e_fr_energy">   -585.98243088 </i>
    <i name="e_wo_entrp">   -585.93309159 </i>
    <i name="e_0_energy">   -585.95776124 </i>
   </energy>
  </scstep>
  <scstep>
   <time name="dav">   29.89   29.91</time>
   <time name="total">   32.53   32.55</time>
   <energy>
    <i name="e_fr_energy">   -577.82996280 </i>
    <i name="e_wo_entrp">   -577.78179532 </i>
    <i name="e_0_energy">   -577.80587906 </i>
   </energy>
  </scstep>
  <scstep>
   <time name="dav">   30.84   30.86</time>
   <time name="total">   33.45   33.47</time>
   <energy>
    <i name="e_fr_energy">   -575.13024241 </i>
    <i name="e_wo_entrp">   -575.08145977 </i>
    <i name="e_0_energy">   -575.10585109 </i>
   </energy>
  </scstep>
  <scstep>
   <time name="dav">   30.85   30.87</time>
   <time name="total">   33.46   33.48</time>
   <energy>
    <i name="e_fr_energy">   -570.88839703 </i>
    <i name="e_wo_entrp">   -570.84466085 </i>
    <i name="e_0_energy">   -570.86652894 </i>
   </energy>
  </scstep>
  <scstep>
   <time name="dav">   29.49   29.51</time>
   <time name="total">   32.15   32.17</time>
   <energy>
    <i name="e_fr_energy">   -579.50597616 </i>
    <i name="e_wo_entrp">   -579.46760609 </i>
    <i name="e_0_energy">   -579.48679112 </i>
   </energy>
  </scstep>
  <scstep>
   <time name="dav">   31.64   31.66</time>
   <time name="total">   34.28   34.30</time>
   <energy>
    <i name="e_fr_energy">   -583.86716074 </i>
    <i name="e_wo_entrp">   -583.83372672 </i>
    <i name="e_0_energy">   -583.85044373 </i>
   </energy>
  </scstep>
  <scstep>
   <time name="dav">   31.42   31.44</time>
   <time name="total">   34.05   34.07</time>
   <energy>
    <i name="e_fr_energy">   -585.73489684 </i>
    <i name="e_wo_entrp">   -585.69152734 </i>
    <i name="e_0_energy">   -585.71321209 </i>
   </energy>
  </scstep>
  <scstep>
   <time name="dav">   30.42   30.44</time>
   <time name="total">   33.04   33.06</time>
   <energy>
    <i name="e_fr_energy">   -581.87093123 </i>
    <i name="e_wo_entrp">   -581.81525566 </i>
    <i name="e_0_energy">   -581.84309344 </i>
   </energy>
  </scstep>
  <scstep>
   <time name="dav">   25.83   25.84</time>
   <time name="total">   28.46   28.48</time>
   <energy>
    <i name="e_fr_energy">   -465.15313482 </i>
    <i name="e_wo_entrp">   -465.12540517 </i>
    <i name="e_0_energy">   -465.13927000 </i>
   </energy>
  </scstep>
  <scstep>
   <time name="dav">   29.74   29.76</time>
   <time name="total">   32.35   32.36</time>
   <energy>
    <i name="e_fr_energy">   -494.05619274 </i>
    <i name="e_wo_entrp">   -494.02876760 </i>
    <i name="e_0_energy">   -494.04248017 </i>
   </energy>
  </scstep>
  <scstep>
   <time name="dav">   30.01   30.03</time>
   <time name="total">   32.67   32.68</time>
   <energy>
    <i name="e_fr_energy">   -507.12486943 </i>
    <i name="e_wo_entrp">   -507.07921165 </i>
    <i name="e_0_energy">   -507.10204054 </i>
   </energy>
  </scstep>
  <scstep>
   <time name="dav">   29.56   29.58</time>
   <time name="total">   32.18   32.20</time>
   <energy>
    <i name="e_fr_energy">   -533.09875837 </i>
    <i name="e_wo_entrp">   -533.06562413 </i>
    <i name="e_0_energy">   -533.08219125 </i>
   </energy>
  </scstep>
  <scstep>
   <time name="dav">   32.92   32.94</time>
   <time name="total">   35.53   35.55</time>
   <energy>
    <i name="e_fr_energy">   -532.14928383 </i>
    <i name="e_wo_entrp">   -532.12223638 </i>
    <i name="e_0_energy">   -532.13576010 </i>
   </energy>
  </scstep>
  <scstep>
   <time name="dav">   30.11   30.12</time>
   <time name="total">   32.71   32.72</time>
   <energy>
    <i name="e_fr_energy">   -649.60727759 </i>
    <i name="e_wo_entrp">   -649.54240947 </i>
    <i name="e_0_energy">   -649.57484353 </i>
   </energy>
  </scstep>
  <scstep>
   <time name="dav">   30.52   30.53</time>
   <time name="total">   33.11   33.13</time>
   <energy>
    <i name="e_fr_energy">   -639.95242972 </i>
    <i name="e_wo_entrp">   -639.92384578 </i>
    <i name="e_0_energy">   -639.93813775 </i>
   </energy>
  </scstep>
  <scstep>
   <time name="dav">   30.08   30.09</time>
   <time name="total">   32.72   32.73</time>
   <energy>
    <i name="e_fr_energy">   -639.72891038 </i>
    <i name="e_wo_entrp">   -639.68937538 </i>
    <i name="e_0_energy">   -639.70914288 </i>
   </energy>
  </scstep>
  <scstep>
   <time name="dav">   30.63   30.64</time>
   <time name="total">   33.24   33.26</time>
   <energy>
    <i name="e_fr_energy">   -640.80843353 </i>
    <i name="e_wo_entrp">   -640.77450705 </i>
    <i name="e_0_energy">   -640.79147029 </i>
   </energy>
  </scstep>
  <scstep>
   <time name="dav">   31.89   31.90</time>
   <time name="total">   34.52   34.54</time>
   <energy>
    <i name="e_fr_energy">   -640.64230794 </i>
    <i name="e_wo_entrp">   -640.60605562 </i>
    <i name="e_0_energy">   -640.62418178 </i>
   </energy>
  </scstep>
  <scstep>
   <time name="dav">   31.12   31.14</time>
   <time name="total">   33.76   33.78</time>
   <energy>
    <i name="e_fr_energy">   -640.17691919 </i>
    <i name="e_wo_entrp">   -640.12967591 </i>
    <i name="e_0_energy">   -640.15329755 </i>
   </energy>
  </scstep>
  <scstep>
   <time name="dav">   31.87   31.89</time>
   <time name="total">   34.49   34.51</time>
   <energy>
    <i name="e_fr_energy">   -639.98923696 </i>
    <i name="e_wo_entrp">   -639.94498552 </i>
    <i name="e_0_energy">   -639.96711124 </i>
   </energy>
  </scstep>
  <scstep>
   <time name="dav">   30.15   30.17</time>
   <time name="total">   32.81   32.83</time>
   <energy>
    <i name="e_fr_energy">   -639.90962679 </i>
    <i name="e_wo_entrp">   -639.86801694 </i>
    <i name="e_0_energy">   -639.88882186 </i>
   </energy>
  </scstep>
  <scstep>
   <time name="dav">   31.54   31.56</time>
   <time name="total">   34.18   34.19</time>
   <energy>
    <i name="e_fr_energy">   -639.91953574 </i>
    <i name="e_wo_entrp">   -639.87328944 </i>
    <i name="e_0_energy">   -639.89641259 </i>
   </energy>
  </scstep>
  <scstep>
   <time name="dav">   30.81   30.82</time>
   <time name="total">   33.42   33.44</time>
   <energy>
    <i name="e_fr_energy">   -639.74908970 </i>
    <i name="e_wo_entrp">   -639.69045232 </i>
    <i name="e_0_energy">   -639.71977101 </i>
   </energy>
  </scstep>
  <scstep>
   <time name="dav">   31.80   31.82</time>
   <time name="total">   34.40   34.42</time>
   <energy>
    <i name="e_fr_energy">   -641.09732964 </i>
    <i name="e_wo_entrp">   -641.02626739 </i>
    <i name="e_0_energy">   -641.06179852 </i>
   </energy>
  </scstep>
  <scstep>
   <time name="dav">   31.11   31.13</time>
   <time name="total">   33.74   33.75</time>
   <energy>
    <i name="e_fr_energy">   -641.87064031 </i>
    <i name="e_wo_entrp">   -641.80910225 </i>
    <i name="e_0_energy">   -641.83987128 </i>
   </energy>
  </scstep>
  <scstep>
   <time name="dav">   30.58   30.60</time>
   <time name="total">   33.21   33.23</time>
   <energy>
    <i name="e_fr_energy">   -642.49696808 </i>
    <i name="e_wo_entrp">   -642.43535214 </i>
    <i name="e_0_energy">   -642.46616011 </i>
   </energy>
  </scstep>
  <scstep>
   <time name="dav">   30.30   30.31</time>
   <time name="total">   32.96   32.97</time>
   <energy>
    <i name="e_fr_energy">   -642.59266735 </i>
    <i name="e_wo_entrp">   -642.53125619 </i>
    <i name="e_0_energy">   -642.56196177 </i>
   </energy>
  </scstep>
  <scstep>
   <time name="dav">   29.64   29.66</time>
   <time name="total">   32.29   32.30</time>
   <energy>
    <i name="e_fr_energy">   -642.93190994 </i>
    <i name="e_wo_entrp">   -642.87576628 </i>
    <i name="e_0_energy">   -642.90383811 </i>
   </energy>
  </scstep>
  <scstep>
   <time name="dav">   30.40   30.42</time>
   <time name="total">   33.03   33.04</time>
   <energy>
    <i name="e_fr_energy">   -642.87532762 </i>
    <i name="e_wo_entrp">   -642.82352442 </i>
    <i name="e_0_energy">   -642.84942602 </i>
   </energy>
  </scstep>
  <scstep>
   <time name="dav">   31.64   31.66</time>
   <time name="total">   34.25   34.27</time>
   <energy>
    <i name="e_fr_energy">   -643.27906407 </i>
    <i name="e_wo_entrp">   -643.22692787 </i>
    <i name="e_0_energy">   -643.25299597 </i>
   </energy>
  </scstep>
  <scstep>
   <time name="dav">   29.36   29.38</time>
   <time name="total">   31.98   32.00</time>
   <energy>
    <i name="e_fr_energy">   -643.49966865 </i>
    <i name="e_wo_entrp">   -643.44307402 </i>
    <i name="e_0_energy">   -643.47137133 </i>
   </energy>
  </scstep>
  <scstep>
   <time name="dav">   29.17   29.18</time>
   <time name="total">   31.79   31.81</time>
   <energy>
    <i name="e_fr_energy">   -643.86655823 </i>
    <i name="e_wo_entrp">   -643.81846093 </i>
    <i name="e_0_energy">   -643.84250958 </i>
   </energy>
  </scstep>
  <scstep>
   <time name="dav">   30.94   30.96</time>
   <time name="total">   32.24   32.26</time>
   <energy>
    <i name="alphaZ">   1839.19756306 </i>
    <i name="ewald"> 117433.23272571 </i>
    <i name="hartreedc">-171536.19290043 </i>
    <i name="XCdc">   2033.37072497 </i>
    <i name="pawpsdc">  52834.71792650 </i>
    <i name="pawaedc"> -52134.63627043 </i>
    <i name="eentropy">     -0.05327136 </i>
    <i name="bandstr">  -7929.05140771 </i>
    <i name="atom">  56815.39572979 </i>
    <i name="e_fr_energy">   -644.01917991 </i>
    <i name="e_wo_entrp">   -643.96590854 </i>
    <i name="e_0_energy">   -643.99254422 </i>
   </energy>
  </scstep>
  <structure>
   <crystal>
    <varray name="basis" >
     <v>      11.59820000       0.00000000       0.00000000 </v>
     <v>      -5.79910000      10.04433584       0.00000000 </v>
     <v>       0.00000000       0.00000000      21.04820000 </v>
    </varray>
    <i name="volume">   2452.03565189 </i>
    <varray name="rec_basis" >
     <v>       0.08622028       0.04977930       0.00000000 </v>
     <v>       0.00000000       0.09955860       0.00000000 </v>
     <v>       0.00000000       0.00000000       0.04751000 </v>
    </varray>
   </crystal>
   <varray name="positions" >
    <v>       0.00000000       0.00000000       0.45993000 </v>
    <v>       0.22222000       0.11111000       0.30996000 </v>
    <v>       0.11111000       0.22222000       0.15999000 </v>
    <v>       0.55556000       0.11111000       0.30996000 </v>
    <v>       0.44444000       0.22222000       0.15999000 </v>
    <v>       0.88889000       0.11111000       0.30996000 </v>
    <v>       0.77778000       0.22222000       0.15999000 </v>
    <v>       0.00000000       0.33333000       0.45993000 </v>
    <v>       0.22222000       0.44444000       0.30996000 </v>
    <v>       0.11111000       0.55556000       0.15999000 </v>
    <v>       0.55556000       0.44444000       0.30996000 </v>
    <v>       0.44444000       0.55556000       0.15999000 </v>
    <v>       0.88889000       0.44444000       0.30996000 </v>
    <v>       0.77778000       0.55556000       0.15999000 </v>
    <v>       0.00000000       0.66667000       0.45993000 </v>
    <v>       0.22222000       0.77778000       0.30996000 </v>
    <v>       0.11111000       0.88889000       0.15999000 </v>
    <v>       0.55556000       0.77778000       0.30996000 </v>
    <v>       0.44444000       0.88889000       0.15999000 </v>
    <v>       0.88889000       0.77778000       0.30996000 </v>
    <v>       0.77778000       0.88889000       0.15999000 </v>
    <v>       0.00000000       0.00000000       0.12250000 </v>
    <v>       0.00000000       0.00000000       0.57241000 </v>
    <v>       0.11111000       0.22222000       0.27247000 </v>
    <v>       0.22222000       0.11111000       0.42244000 </v>
    <v>       0.11111000       0.22222000       0.04751000 </v>
    <v>       0.11111000       0.22222000       0.49742000 </v>
    <v>       0.00000000       0.00000000       0.34745000 </v>
    <v>       0.22222000       0.11111000       0.19748000 </v>
    <v>       0.33333000       0.00000000       0.12250000 </v>
    <v>       0.33333000       0.00000000       0.57241000 </v>
    <v>       0.44444000       0.22222000       0.27247000 </v>
    <v>       0.55556000       0.11111000       0.42244000 </v>
    <v>       0.44444000       0.22222000       0.04751000 </v>
    <v>       0.44444000       0.22222000       0.49742000 </v>
    <v>       0.33333000       0.00000000       0.34745000 </v>
    <v>       0.55556000       0.11111000       0.19748000 </v>
    <v>       0.66667000       0.00000000       0.12250000 </v>
    <v>       0.66667000       0.00000000       0.57241000 </v>
    <v>       0.77778000       0.22222000       0.27247000 </v>
    <v>       0.88889000       0.11111000       0.42244000 </v>
    <v>       0.77778000       0.22222000       0.04751000 </v>
    <v>       0.77778000       0.22222000       0.49742000 </v>
    <v>       0.66667000       0.00000000       0.34745000 </v>
    <v>       0.88889000       0.11111000       0.19748000 </v>
    <v>       0.00000000       0.33333000       0.12250000 </v>
    <v>       0.00000000       0.33333000       0.57241000 </v>
    <v>       0.11111000       0.55556000       0.27247000 </v>
    <v>       0.22222000       0.44444000       0.42244000 </v>
    <v>       0.11111000       0.55556000       0.04751000 </v>
    <v>       0.11111000       0.55556000       0.49742000 </v>
    <v>       0.00000000       0.33333000       0.34745000 </v>
    <v>       0.22222000       0.44444000       0.19748000 </v>
    <v>       0.33333000       0.33333000       0.12250000 </v>
    <v>       0.33333000       0.33333000       0.57241000 </v>
    <v>       0.44444000       0.55556000       0.27247000 </v>
    <v>       0.55556000       0.44444000       0.42244000 </v>
    <v>       0.44444000       0.55556000       0.04751000 </v>
    <v>       0.44444000       0.55556000       0.49742000 </v>
    <v>       0.33333000       0.33333000       0.34745000 </v>
    <v>       0.55556000       0.44444000       0.19748000 </v>
    <v>       0.66667000       0.33333000       0.12250000 </v>
    <v>       0.66667000       0.33333000       0.57241000 </v>
    <v>       0.77778000       0.55556000       0.27247000 </v>
    <v>       0.88889000       0.44444000       0.42244000 </v>
    <v>       0.77778000       0.55556000       0.04751000 </v>
    <v>       0.77778000       0.55556000       0.49742000 </v>
    <v>       0.66667000       0.33333000       0.34745000 </v>
    <v>       0.88889000       0.44444000       0.19748000 </v>
    <v>       0.00000000       0.66667000       0.12250000 </v>
    <v>       0.00000000       0.66667000       0.57241000 </v>
    <v>       0.11111000       0.88889000       0.27247000 </v>
    <v>       0.22222000       0.77778000       0.42244000 </v>
    <v>       0.11111000       0.88889000       0.04751000 </v>
    <v>       0.11111000       0.88889000       0.49742000 </v>
    <v>       0.00000000       0.66667000       0.34745000 </v>
    <v>       0.22222000       0.77778000       0.19748000 </v>
    <v>       0.33333000       0.66667000       0.12250000 </v>
    <v>       0.33333000       0.66667000       0.57241000 </v>
    <v>       0.44444000       0.88889000       0.27247000 </v>
    <v>       0.55556000       0.77778000       0.42244000 </v>
    <v>       0.44444000       0.88889000       0.04751000 </v>
    <v>       0.44444000       0.88889000       0.49742000 </v>
    <v>       0.33333000       0.66667000       0.34745000 </v>
    <v>       0.55556000       0.77778000       0.19748000 </v>
    <v>       0.66667000       0.66667000       0.12250000 </v>
    <v>       0.66667000       0.66667000       0.57241000 </v>
    <v>       0.77778000       0.88889000       0.27247000 </v>
    <v>       0.88889000       0.77778000       0.42244000 </v>
    <v>       0.77778000       0.88889000       0.04751000 </v>
    <v>       0.77778000       0.88889000       0.49742000 </v>
    <v>       0.66667000       0.66667000       0.34745000 </v>
    <v>       0.88889000       0.77778000       0.19748000 </v>
    <v>       0.33333000       0.00000000       0.45993000 </v>
    <v>       0.66667000       0.00000000       0.45993000 </v>
    <v>       0.33333000       0.33333000       0.45993000 </v>
    <v>       0.66667000       0.33333000       0.45993000 </v>
    <v>       0.33333000       0.66667000       0.45993000 </v>
    <v>       0.66667000       0.66667000       0.45993000 </v>
   </varray>
  </structure>
  <varray name="forces" >
   <v>      -0.02125169      -0.10022546       0.33629859 </v>
   <v>      -0.23913054      -0.15878555      -0.07955049 </v>
   <v>       0.02938885       0.03030186      -0.53596053 </v>
   <v>       0.02581485       0.02908323      -0.34691764 </v>
   <v>      -0.02161850      -0.00916149      -1.66097480 </v>
   <v>       0.21181852      -0.03642500       0.10676630 </v>
   <v>      -0.04152489       0.04475758      -0.73520318 </v>
   <v>       0.09285719      -0.26003944       0.42766932 </v>
   <v>      -0.12686715      -0.17768017      -0.25735283 </v>
   <v>      -0.03820647      -0.01858587      -0.47124691 </v>
   <v>       0.05183018       0.01039595      -0.32472337 </v>
   <v>       0.02214467      -0.06584150      -0.52025087 </v>
   <v>       0.07083157      -0.00877854      -0.10440718 </v>
   <v>       0.02197756      -0.05362929      -0.47872310 </v>
   <v>      -0.18813370       0.20024344       0.48048573 </v>
   <v>      -0.17373805       0.02753557      -0.27042977 </v>
   <v>       0.07497826       0.02418448      -0.44865979 </v>
   <v>       0.13113507       0.08846175      -0.36245076 </v>
   <v>      -0.06586299       0.05671099      -0.61323760 </v>
   <v>       0.03803400       0.23818578       0.06871482 </v>
   <v>      -0.00296565       0.01164394      -0.43470458 </v>
   <v>      -0.02064751       0.02232630      -0.08337062 </v>
   <v>       0.09189971       0.08559754       0.81639237 </v>
   <v>       0.10265371       0.08164690       0.13310265 </v>
   <v>       1.97579456       1.22389657       0.92300932 </v>
   <v>       0.03331647       0.02157972       0.04217137 </v>
   <v>       1.60327980       1.29929637      -0.45724032 </v>
[...]
    <v>       0.55376134       0.77704660       0.31613786 </v>
    <v>       0.44444000       0.88889000       0.15999000 </v>
    <v>       0.88546475       0.77476386       0.31194469 </v>
    <v>       0.77778000       0.88889000       0.15999000 </v>
    <v>       0.00000000       0.00000000       0.12250000 </v>
    <v>       0.00194754       0.00149255       0.57507371 </v>
    <v>       0.11480131       0.22452018       0.27497651 </v>
    <v>       0.25258751       0.12707383       0.43441604 </v>
    <v>       0.11111000       0.22222000       0.04751000 </v>
    <v>       0.13310239       0.23731469       0.48449450 </v>
    <v>       0.00275640       0.00121579       0.34851432 </v>
    <v>       0.22222000       0.11111000       0.19748000 </v>
    <v>       0.33333000       0.00000000       0.12250000 </v>
    <v>       0.34255588       0.00383055       0.54857210 </v>
    <v>       0.44508194       0.22273669       0.27540175 </v>
    <v>       0.54374126       0.10658713       0.44012187 </v>
    <v>       0.44444000       0.22222000       0.04751000 </v>
    <v>       0.45477937       0.22624565       0.48431462 </v>
    <v>       0.33406050       0.00021429       0.35895017 </v>
    <v>       0.55556000       0.11111000       0.19748000 </v>
    <v>       0.66667000       0.00000000       0.12250000 </v>
    <v>       0.66937737       0.00136694       0.54890733 </v>
    <v>       0.77446551       0.22065732       0.27576761 </v>
    <v>       0.86295938       0.10057175       0.43183324 </v>
    <v>       0.77778000       0.22222000       0.04751000 </v>
    <v>       0.75051175       0.20925842       0.48737854 </v>
    <v>       0.65643921       0.99464066       0.35833172 </v>
    <v>       0.88889000       0.11111000       0.19748000 </v>
    <v>       0.00000000       0.33333000       0.12250000 </v>
    <v>       0.99979924       0.33068640       0.56929328 </v>
    <v>       0.11442248       0.55746002       0.27506190 </v>
    <v>       0.24949839       0.45999032       0.43399385 </v>
    <v>       0.11111000       0.55556000       0.04751000 </v>
    <v>       0.13526082       0.56839255       0.48325620 </v>
    <v>       0.00375764       0.33501561       0.35097092 </v>
    <v>       0.22222000       0.44444000       0.19748000 </v>
    <v>       0.33333000       0.33333000       0.12250000 </v>
    <v>       0.34642128       0.33903476       0.54747557 </v>
    <v>       0.44496962       0.55593050       0.27540528 </v>
    <v>       0.54450199       0.43764465       0.44005174 </v>
    <v>       0.44444000       0.55556000       0.04751000 </v>
    <v>       0.45341361       0.56125924       0.48357270 </v>
    <v>       0.33350679       0.33391139       0.35920755 </v>
    <v>       0.55556000       0.44444000       0.19748000 </v>
    <v>       0.66667000       0.33333000       0.12250000 </v>
    <v>       0.66732142       0.33434235       0.54911120 </v>
    <v>       0.77466697       0.55403121       0.27585450 </v>
    <v>       0.86478662       0.43236523       0.43262695 </v>
    <v>       0.77778000       0.55556000       0.04751000 </v>
    <v>       0.75113872       0.54164660       0.48722687 </v>
    <v>       0.65781877       0.32866174       0.35837857 </v>
    <v>       0.88889000       0.44444000       0.19748000 </v>
    <v>       0.00000000       0.66667000       0.12250000 </v>
    <v>       0.99877689       0.66668540       0.56866550 </v>
    <v>       0.11428467       0.88987172       0.27502886 </v>
    <v>       0.24932653       0.79042046       0.43414532 </v>
    <v>       0.11111000       0.88889000       0.04751000 </v>
    <v>       0.13625646       0.89864154       0.48413783 </v>
    <v>       0.00394731       0.66906447       0.35099443 </v>
    <v>       0.22222000       0.77778000       0.19748000 </v>
    <v>       0.33333000       0.66667000       0.12250000 </v>
    <v>       0.34093378       0.67145858       0.54670875 </v>
    <v>       0.44492078       0.88886153       0.27530762 </v>
    <v>       0.54273951       0.77115255       0.43922080 </v>
    <v>       0.44444000       0.88889000       0.04751000 </v>
    <v>       0.45383281       0.89337977       0.48306977 </v>
    <v>       0.33457099       0.66726953       0.36024380 </v>
    <v>       0.55556000       0.77778000       0.19748000 </v>
    <v>       0.66667000       0.66667000       0.12250000 </v>
    <v>       0.66818299       0.66668682       0.54873502 </v>
    <v>       0.77390361       0.88686184       0.27571495 </v>
    <v>       0.86193627       0.76178024       0.43200371 </v>
    <v>       0.77778000       0.88889000       0.04751000 </v>
    <v>       0.74732270       0.87341939       0.48765788 </v>
    <v>       0.65688951       0.66229324       0.35842442 </v>
    <v>       0.88889000       0.77778000       0.19748000 </v>
    <v>       0.34179342       0.00395007       0.46237844 </v>
    <v>       0.65425918       0.99451986       0.46302583 </v>
    <v>       0.34186622       0.33762622       0.46173493 </v>
    <v>       0.65640449       0.32865018       0.46335995 </v>
    <v>       0.34016531       0.66849350       0.46067570 </v>
    <v>       0.65572978       0.66046973       0.46291831 </v>
   </varray>
  </structure>
  <varray name="forces" >
   <v>      -0.02066308       0.00470391       0.59360506 </v>
   <v>      -0.88365384      -0.47807398      -0.02039667 </v>
   <v>       0.07817604       0.09263323      -0.46122555 </v>
   <v>      -0.02096404      -0.05870966      -0.40573316 </v>
   <v>       0.06002200       0.02169571      -0.70907467 </v>
   <v>       0.73216147       0.21175720       0.60407314 </v>
   <v>      -0.13238572      -0.04402518      -0.77524302 </v>
   <v>      -0.09435201      -0.17330823      -0.05424250 </v>
   <v>      -0.65854278      -0.49172775      -0.13437117 </v>
   <v>       0.09453860       0.06340752      -0.47024697 </v>
   <v>      -0.10580830      -0.01185957      -0.43867936 </v>
   <v>       0.05161758       0.04861666      -0.64548819 </v>
   <v>       0.60861821       0.17982385       0.38485109 </v>
   <v>      -0.14018810      -0.08834794      -0.79938669 </v>
   <v>      -0.11682003       0.06412689       0.12797556 </v>
   <v>      -0.61549068      -0.26227696      -0.24229118 </v>
   <v>       0.15111887       0.03168877      -0.45666593 </v>
   <v>       0.04665007       0.02320504      -0.46201630 </v>
   <v>       0.01236739       0.00063395      -0.62677237 </v>
   <v>       0.43540743       0.62415883       0.49488225 </v>
   <v>      -0.15944742      -0.11716751      -0.71560953 </v>
   <v>      -0.03745309      -0.02077543       0.05292511 </v>
   <v>      -0.03034488      -0.21232543      -0.89022902 </v>
   <v>       0.08181214       0.07022274       0.35330733 </v>
   <v>      -0.26869626      -0.12760638      -0.06705248 </v>
   <v>      -0.02459363       0.01808130       0.03575403 </v>
   <v>       0.29116518      -0.16991092      -0.99547546 </v>
   <v>      -0.00637081      -0.01583764       0.67984414 </v>
   <v>       0.12225869       0.06376271       0.71287870 </v>
   <v>       0.00180256       0.01752359      -0.04270615 </v>
   <v>       0.37993098       0.19061331      -0.62244839 </v>
   <v>       0.00700434       0.01326522       0.53843634 </v>
   <v>       0.14465829      -0.05770009      -0.87502825 </v>
   <v>      -0.00480158      -0.03488856       0.05458706 </v>
   <v>       0.04821380       0.09998612      -0.23624609 </v>
   <v>       0.16823995       0.10751135      -0.06991741 </v>
   <v>      -0.03459469      -0.00633175       0.86272593 </v>
   <v>       0.03429407       0.02911032       0.04662061 </v>
   <v>       0.20066176       0.14519228      -0.27677299 </v>
   <v>      -0.13044233      -0.03286824       0.54386554 </v>
   <v>       0.13193331      -0.36952766       0.10620303 </v>
   <v>       0.03004068       0.01587247       0.08002435 </v>
   <v>      -0.14767401      -0.07423727      -0.38539079 </v>
   <v>      -0.30362547      -0.07866380       0.24113528 </v>
   <v>      -0.08528930      -0.03249798       0.88229536 </v>
   <v>      -0.04260903      -0.02747233      -0.00964956 </v>
   <v>      -0.03015866      -0.22906979       0.12657524 </v>
   <v>       0.06895467       0.04091519       0.45255651 </v>
   <v>       0.01471664       0.11944813      -0.15012304 </v>
   <v>       0.00431401      -0.02880493       0.03470995 </v>
   <v>      -0.09282038       0.10570133      -0.87601670 </v>
   <v>      -0.10801743       0.04404771       0.15460602 </v>
   <v>       0.09885266       0.08499346       0.68549727 </v>
   <v>       0.01391911      -0.00180296       0.02140710 </v>
   <v>       0.29558226       0.16013229      -0.38065868 </v>
   <v>      -0.01577283      -0.03286004       0.55060417 </v>
   <v>      -0.11063550       0.05052459      -0.84559364 </v>
   <v>       0.02183248       0.01411160       0.04657014 </v>
   <v>       0.17599109      -0.08047027      -0.29314531 </v>
   <v>       0.20489496       0.12783510      -0.15929768 </v>
   <v>      -0.01726128      -0.02061497       0.87131325 </v>
   <v>       0.02920290       0.01904504       0.05217749 </v>
   <v>       0.22838362       0.11706825      -0.15870683 </v>
   <v>      -0.10411455      -0.10607259       0.55578589 </v>
   <v>      -0.19408299      -0.12435088      -0.08039406 </v>
   <v>      -0.02777544       0.01840192       0.08361251 </v>
   <v>      -0.08361656      -0.11356724      -0.40971095 </v>
   <v>      -0.25277878      -0.10031486       0.26169703 </v>
   <v>      -0.08043436      -0.02722269       0.92793834 </v>
   <v>      -0.04975319      -0.02714819       0.04734734 </v>
   <v>      -0.09146313      -0.22671532       0.06925919 </v>
   <v>       0.12314983       0.04179027       0.36763808 </v>
   <v>       0.06713617       0.08932610      -0.16801759 </v>
   <v>       0.03157317       0.01775973       0.03547969 </v>
   <v>      -0.48943607       0.52270500      -0.95592160 </v>
   <v>      -0.05252893      -0.13008119       0.19848055 </v>
   <v>       0.10499598       0.04378309       0.68051494 </v>
   <v>       0.00824232      -0.00162879       0.00923401 </v>
   <v>       0.35901391       0.22588463      -0.38764129 </v>
   <v>      -0.05631227      -0.01398469       0.56940146 </v>
   <v>       0.04388550       0.04875318      -0.83551571 </v>
   <v>      -0.03081773       0.01227652       0.04235947 </v>
   <v>       0.08343959       0.16112456      -0.19697723 </v>
   <v>       0.09020605       0.03896400      -0.51734552 </v>
   <v>      -0.04735906      -0.02737125       0.80440192 </v>
   <v>       0.04273730       0.01367797      -0.01421532 </v>
   <v>       0.19639719       0.08825091      -0.20221315 </v>
   <v>      -0.14062273      -0.07793224       0.50549457 </v>
   <v>      -0.14651184       0.24524481       0.10099540 </v>
   <v>       0.00026216      -0.03286605       0.07355707 </v>
   <v>       0.20808488       0.10504588      -0.42895603 </v>
   <v>      -0.21231745      -0.25561040       0.21417193 </v>
   <v>      -0.05904307      -0.06856799       0.88810217 </v>
   <v>      -0.46961938      -0.27318553       0.30804584 </v>
   <v>       0.57167775       0.32326720       0.31001323 </v>
   <v>      -0.48573768      -0.37977874       0.33465376 </v>
   <v>       0.52341023       0.16079738       0.33652317 </v>
   <v>      -0.41339740      -0.26096635       0.52014099 </v>
   <v>       0.40364998       0.44865940       0.31195460 </v>
  </varray>
  <varray name="stress" >
   <v>     -34.77508485       0.20660318       3.83236781 </v>
   <v>       0.20670195     -34.28627558       1.40362428 </v>
   <v>       3.83266636       1.40374337     -24.84547815 </v>
  </varray>
  <energy>
   <i name="e_fr_energy">   -662.46449362 </i>
   <i name="e_wo_entrp">   -662.40850328 </i>
   <i name="e_0_energy">   -662.43649845 </i>
  </energy>
  <time name="totalsc"> 2019.61 2020.91</time>
 </calculation>
 <calculation>
  <scstep>
   <time name="dav">   21.67   21.68</time>
   <time name="total">   24.20   24.23</time>
   <energy>
    <i name="alphaZ">   1839.19756306 </i>
    <i name="ewald"> 121531.99476268 </i>
    <i name="hartreedc">-175437.65212053 </i>
    <i name="XCdc">   2041.94252410 </i>
    <i name="pawpsdc">  54550.63771807 </i>
    <i name="pawaedc"> -53863.82336511 </i>
    <i name="eentropy">     -0.03034480 </i>
    <i name="bandstr">  -8139.24742801 </i>
    <i name="atom">  56815.39572979 </i>
    <i name="e_fr_energy">   -661.58496074 </i>
    <i name="e_wo_entrp">   -661.55461594 </i>
    <i name="e_0_energy">   -661.56978834 </i>
   </energy>
  </scstep>
  <scstep>
   <time name="dav">   31.61   31.63</time>
   <time name="total">   34.17   34.19</time>
   <energy>
    <i name="e_fr_energy">   -663.92332738 </i>
    <i name="e_wo_entrp">   -663.77756585 </i>
    <i name="e_0_energy">   -663.85044661 </i>
   </energy>
  </scstep>
  <scstep>
   <time name="dav">   35.94   35.97</time>
   <time name="total">   38.49   38.51</time>
   <energy>
    <i name="e_fr_energy">   -663.41446806 </i>
    <i name="e_wo_entrp">   -663.39509443 </i>
    <i name="e_0_energy">   -663.40478125 </i>
   </energy>
  </scstep>
  <scstep>
   <time name="dav">   33.67   33.69</time>
   <time name="total">   36.22   36.24</time>
   <energy>
    <i name="e_fr_energy">   -663.26602894 </i>
    <i name="e_wo_entrp">   -663.24493301 </i>
    <i name="e_0_energy">   -663.25548098 </i>
   </energy>
  </scstep>
  <scstep>
   <time name="dav">   32.56   32.58</time>
   <time name="total">   35.13   35.15</time>
   <energy>
    <i name="e_fr_energy">   -662.99506096 </i>
    <i name="e_wo_entrp">   -662.97241207 </i>
    <i name="e_0_energy">   -662.98373652 </i>
   </energy>
  </scstep>
  <scstep>
   <time name="dav">   33.01   33.03</time>
   <time name="total">   35.56   35.59</time>
   <energy>
    <i name="e_fr_energy">   -662.91574129 </i>
    <i name="e_wo_entrp">   -662.88551534 </i>
    <i name="e_0_energy">   -662.90062831 </i>
   </energy>
  </scstep>
  <scstep>
   <time name="dav">   31.25   31.26</time>
   <time name="total">   33.78   33.80</time>
   <energy>
    <i name="e_fr_energy">   -662.86796727 </i>
    <i name="e_wo_entrp">   -662.78182475 </i>
    <i name="e_0_energy">   -662.82489601 </i>
   </energy>
  </scstep>
  <scstep>
   <time name="dav">   30.82   30.84</time>
   <time name="total">   33.36   33.38</time>
   <energy>
    <i name="e_fr_energy">   -662.98831521 </i>
    <i name="e_wo_entrp">   -662.91302062 </i>
    <i name="e_0_energy">   -662.95066791 </i>
   </energy>
  </scstep>
  <scstep>
   <time name="dav">   27.38   27.40</time>
   <time name="total">   29.93   29.94</time>
   <energy>
    <i name="e_fr_energy">   -662.95287837 </i>
    <i name="e_wo_entrp">   -662.88118956 </i>
    <i name="e_0_energy">   -662.91703397 </i>
   </energy>
  </scstep>
  <scstep>
   <time name="dav">   29.55   29.57</time>
   <time name="total">   32.10   32.12</time>
   <energy>
    <i name="e_fr_energy">   -662.93154654 </i>
    <i name="e_wo_entrp">   -662.87095850 </i>
    <i name="e_0_energy">   -662.90125252 </i>
   </energy>
  </scstep>
  <scstep>
   <time name="dav">   27.17   27.19</time>
   <time name="total">   29.72   29.73</time>
   <energy>
    <i name="e_fr_energy">   -662.94769504 </i>
    <i name="e_wo_entrp">   -662.89082968 </i>
    <i name="e_0_energy">   -662.91926236 </i>
   </energy>
  </scstep>
  <scstep>
   <time name="dav">   28.73   28.74</time>
   <time name="total">   31.30   31.32</time>
   <energy>
    <i name="e_fr_energy">   -662.96682629 </i>
    <i name="e_wo_entrp">   -662.91755068 </i>
    <i name="e_0_energy">   -662.94218848 </i>
   </energy>
  </scstep>
  <scstep>
   <time name="dav">   29.53   29.55</time>
   <time name="total">   32.07   32.09</time>
   <energy>
    <i name="e_fr_energy">   -662.97135383 </i>
    <i name="e_wo_entrp">   -662.91190128 </i>
    <i name="e_0_energy">   -662.94162756 </i>
   </energy>
  </scstep>
  <scstep>
   <time name="dav">   29.60   29.61</time>
   <time name="total">   32.15   32.17</time>
   <energy>
    <i name="e_fr_energy">   -662.97618423 </i>
    <i name="e_wo_entrp">   -662.91672896 </i>
    <i name="e_0_energy">   -662.94645659 </i>
   </energy>
  </scstep>
  <scstep>
   <time name="dav">   28.25   28.26</time>
   <time name="total">   30.78   30.80</time>
   <energy>
    <i name="e_fr_energy">   -662.99027412 </i>
    <i name="e_wo_entrp">   -662.93041200 </i>
    <i name="e_0_energy">   -662.96034306 </i>
   </energy>
  </scstep>
  <scstep>
   <time name="dav">   30.12   30.13</time>
   <time name="total">   32.71   32.73</time>
   <energy>
    <i name="e_fr_energy">   -663.00253368 </i>
    <i name="e_wo_entrp">   -662.95206380 </i>
    <i name="e_0_energy">   -662.97729874 </i>
   </energy>
  </scstep>
  <scstep>
   <time name="dav">   30.54   30.56</time>
   <time name="total">   33.10   33.12</time>
   <energy>
    <i name="e_fr_energy">   -663.00389025 </i>
    <i name="e_wo_entrp">   -662.95157556 </i>
    <i name="e_0_energy">   -662.97773290 </i>
   </energy>
  </scstep>
  <scstep>
   <time name="dav">   29.01   29.02</time>
   <time name="total">   31.58   31.60</time>
   <energy>
    <i name="e_fr_energy">   -663.00489880 </i>
    <i name="e_wo_entrp">   -662.95254168 </i>
    <i name="e_0_energy">   -662.97872024 </i>
   </energy>
  </scstep>
  <scstep>
   <time name="dav">   30.24   30.26</time>
   <time name="total">   32.77   32.79</time>
   <energy>
    <i name="e_fr_energy">   -663.00554984 </i>
    <i name="e_wo_entrp">   -662.95311415 </i>
    <i name="e_0_energy">   -662.97933199 </i>
   </energy>
  </scstep>
  <scstep>
   <time name="dav">   29.35   29.37</time>
   <time name="total">   31.92   31.93</time>
   <energy>
    <i name="e_fr_energy">   -663.00627906 </i>
    <i name="e_wo_entrp">   -662.95311667 </i>
    <i name="e_0_energy">   -662.97969787 </i>
   </energy>
  </scstep>
  <scstep>
   <time name="dav">   30.57   30.59</time>
   <time name="total">   33.13   33.15</time>
   <energy>
    <i name="e_fr_energy">   -663.00605191 </i>
    <i name="e_wo_entrp">   -662.95218919 </i>
    <i name="e_0_energy">   -662.97912055 </i>
   </energy>
  </scstep>
  <scstep>
   <time name="dav">   29.78   29.80</time>
   <time name="total">   32.31   32.33</time>
   <energy>
    <i name="e_fr_energy">   -663.00608402 </i>
    <i name="e_wo_entrp">   -662.95344688 </i>
    <i name="e_0_energy">   -662.97976545 </i>
   </energy>
  </scstep>
  <scstep>
   <time name="dav">   28.53   28.55</time>
   <time name="total">   31.13   31.14</time>
   <energy>
    <i name="e_fr_energy">   -663.00752439 </i>
    <i name="e_wo_entrp">   -662.95609596 </i>
    <i name="e_0_energy">   -662.98181018 </i>
   </energy>
  </scstep>
  <scstep>
   <time name="dav">   30.79   30.81</time>
   <time name="total">   33.33   33.35</time>
   <energy>
    <i name="e_fr_energy">   -663.00859760 </i>
    <i name="e_wo_entrp">   -662.95661200 </i>
    <i name="e_0_energy">   -662.98260480 </i>
   </energy>
  </scstep>
  <scstep>
   <time name="dav">   29.42   29.44</time>
   <time name="total">   31.97   31.99</time>
   <energy>
    <i name="e_fr_energy">   -663.00960633 </i>
    <i name="e_wo_entrp">   -662.95769140 </i>
    <i name="e_0_energy">   -662.98364886 </i>
   </energy>
  </scstep>
  <scstep>
   <time name="dav">   30.89   30.90</time>
   <time name="total">   33.42   33.43</time>
   <energy>
    <i name="e_fr_energy">   -663.01023267 </i>
    <i name="e_wo_entrp">   -662.95837997 </i>
    <i name="e_0_energy">   -662.98430632 </i>
   </energy>
  </scstep>
  <scstep>
   <time name="dav">   29.24   29.25</time>
   <time name="total">   31.80   31.81</time>
   <energy>
    <i name="e_fr_energy">   -663.01083704 </i>
    <i name="e_wo_entrp">   -662.95879729 </i>
    <i name="e_0_energy">   -662.98481717 </i>
   </energy>
  </scstep>
  <scstep>
