<?xml version="1.0" encoding="ISO-8859-1"?>
<modeling>
 <generator>
  <i name="program" type="string">vasp </i>
  <i name="version" type="string">6.4.3  </i>
  <i name="subversion" type="string">19Mar24 (build Mar 01 2025 17:53:50) complex                          parallel </i>
  <i name="platform" type="string">Shaheen </i>
  <i name="date" type="string">2025 04 21 </i>
  <i name="time" type="string">16:36:36 </i>
 </generator>
 <incar>
  <i type="int" name="ISTART">     1</i>
  <i type="string" name="PREC">Accurate   (Precision level: Normal or Accurate, set Accurate when perform structure lattice relaxation calculation)</i>
  <i type="logical" name="ADDGRID"> T  </i>
  <i type="int" name="ISPIN">     2</i>
  <i type="int" name="NELM">    90</i>
  <i type="int" name="NELMIN">     6</i>
  <i type="int" name="IBRION">     2</i>
  <i name="EDIFF">      0.00000100</i>
  <i name="EDIFFG">     -0.02000000</i>
  <i type="int" name="NSW">   300</i>
  <i type="int" name="ISIF">     2</i>
  <i name="ENCUT">    520.00000000</i>
  <v name="MAGMOM">      1.00000000      1.00000000      1.00000000      1.00000000      1.00000000      1.00000000      1.00000000      1.00000000      1.00000000      1.00000000      1.00000000      1.00000000      1.00000000      1.00000000      1.00000000      1.00000000      1.00000000      1.00000000      1.00000000      1.00000000
      1.00000000      0.60000000      0.60000000      0.60000000      0.60000000      0.60000000      0.60000000      0.60000000      0.60000000      0.60000000      0.60000000      0.60000000      0.60000000      0.60000000      0.60000000      0.60000000      0.60000000      0.60000000      0.60000000      0.60000000
      0.60000000      0.60000000      0.60000000      0.60000000      0.60000000      0.60000000      0.60000000      0.60000000      0.60000000      0.60000000      0.60000000      0.60000000      0.60000000      0.60000000      0.60000000      0.60000000      0.60000000      0.60000000      0.60000000      0.60000000
      0.60000000      0.60000000      0.60000000      0.60000000      0.60000000      0.60000000      0.60000000      0.60000000      0.60000000      0.60000000      0.60000000      0.60000000      0.60000000      0.60000000      0.60000000      0.60000000      0.60000000      0.60000000      0.60000000      0.60000000
      0.60000000      0.60000000      0.60000000      0.60000000      0.60000000      0.60000000      0.60000000      0.60000000      0.60000000      0.60000000      0.60000000      0.60000000      0.60000000      0.60000000      0.60000000      0.60000000      0.60000000      0.60000000      0.60000000</v>
  <i type="logical" name="LREAL"> F  </i>
  <i type="int" name="ISMEAR">     0</i>
  <i name="SIGMA">      0.05000000</i>
  <i type="int" name="LMAXMIX">     6</i>
  <i type="logical" name="LWAVE"> F  </i>
  <i type="logical" name="LCHARG"> F  </i>
  <i type="logical" name="LASPH"> T  </i>
  <i type="logical" name="LDAU"> T  </i>
  <i type="int" name="LDAUTYPE">     2</i>
  <v type="int" name="LDAUL">     3    -1     2</v>
  <v name="LDAUU">      5.00000000      0.00000000      2.00000000</v>
  <v name="LDAUJ">      0.00000000      0.00000000      0.00000000</v>
 </incar>
 <primitive_cell>
  <structure name="primitive_cell" >
   <crystal>
    <varray name="basis" >
     <v>      11.59820000       0.00000000       0.00000000 </v>
     <v>      -5.79910000      10.04433584       0.00000000 </v>
     <v>       0.00000000       0.00000000      21.04820000 </v>
    </varray>
    <i name="volume">   2452.03565189 </i>
    <varray name="rec_basis" >
     <v>       0.08622028       0.04977930       0.00000000 </v>
     <v>       0.00000000       0.09955860       0.00000000 </v>
     <v>       0.00000000       0.00000000       0.04751000 </v>
    </varray>
   </crystal>
   <varray name="positions" >
    <v>       0.00003245       0.99990597       0.47326085 </v>
    <v>       0.21457054       0.10766198       0.31291103 </v>
    <v>       0.11111000       0.22222000       0.15999000 </v>
    <v>       0.55198733       0.11013884       0.31081798 </v>
    <v>       0.44444000       0.22222000       0.15999000 </v>
    <v>       0.88765297       0.11085958       0.31881716 </v>
    <v>       0.77778000       0.22222000       0.15999000 </v>
    <v>       0.00026977       0.33210223       0.47322461 </v>
    <v>       0.21380207       0.43852001       0.31294951 </v>
    <v>       0.11111000       0.55556000       0.15999000 </v>
    <v>       0.55089481       0.44284764       0.31116055 </v>
    <v>       0.44444000       0.55556000       0.15999000 </v>
    <v>       0.88740642       0.44355552       0.31886299 </v>
    <v>       0.77778000       0.55556000       0.15999000 </v>
    <v>       0.99914108       0.66559609       0.47433286 </v>
    <v>       0.21391715       0.77321466       0.31287740 </v>
    <v>       0.11111000       0.88889000       0.15999000 </v>
    <v>       0.55174985       0.77690106       0.31091526 </v>
    <v>       0.44444000       0.88889000       0.15999000 </v>
    <v>       0.88736796       0.77745868       0.31902912 </v>
    <v>       0.77778000       0.88889000       0.15999000 </v>
    <v>       0.00000000       0.00000000       0.12250000 </v>
    <v>       0.99768274       0.99628963       0.56249867 </v>
    <v>       0.10601204       0.21888436       0.27696733 </v>
    <v>       0.27143676       0.12976520       0.43090862 </v>
    <v>       0.11111000       0.22222000       0.04751000 </v>
    <v>       0.14842714       0.24016093       0.45128224 </v>
    <v>       0.00144205       0.00041847       0.35579658 </v>
    <v>       0.22222000       0.11111000       0.19748000 </v>
    <v>       0.33333000       0.00000000       0.12250000 </v>
    <v>       0.35720841       0.01181656       0.53362779 </v>
    <v>       0.44061446       0.22008049       0.27375196 </v>
    <v>       0.52505680       0.09270114       0.42247440 </v>
    <v>       0.44444000       0.22222000       0.04751000 </v>
    <v>       0.47570540       0.24939193       0.48050708 </v>
    <v>       0.32666684       0.99345736       0.34920024 </v>
    <v>       0.55556000       0.11111000       0.19748000 </v>
    <v>       0.66667000       0.00000000       0.12250000 </v>
    <v>       0.69012764       0.99679654       0.53690623 </v>
    <v>       0.77507883       0.22189952       0.27925694 </v>
    <v>       0.86672681       0.09865284       0.43195000 </v>
    <v>       0.77778000       0.22222000       0.04751000 </v>
    <v>       0.74334622       0.20568593       0.46587096 </v>
    <v>       0.65634452       0.99941413       0.35749489 </v>
    <v>       0.88889000       0.11111000       0.19748000 </v>
    <v>       1.00000000       0.33333000       0.12250000 </v>
    <v>       0.99462307       0.32248231       0.56373782 </v>
    <v>       0.10504836       0.55332712       0.27657059 </v>
    <v>       0.26817236       0.46356395       0.43033667 </v>
    <v>       0.11111000       0.55556000       0.04751000 </v>
    <v>       0.14636927       0.57201238       0.45180124 </v>
    <v>       0.00026861       0.33399212       0.35533632 </v>
    <v>       0.22222000       0.44444000       0.19748000 </v>
    <v>       0.33333000       0.33333000       0.12250000 </v>
    <v>       0.35577409       0.34609627       0.53468980 </v>
    <v>       0.44151844       0.55381350       0.27377970 </v>
    <v>       0.52919565       0.42540666       0.42241979 </v>
    <v>       0.44444000       0.55556000       0.04751000 </v>
    <v>       0.48173753       0.58270478       0.47736228 </v>
    <v>       0.32754523       0.32683528       0.34992762 </v>
    <v>       0.55556000       0.44444000       0.19748000 </v>
    <v>       0.66667000       0.33333000       0.12250000 </v>
    <v>       0.68886058       0.33216634       0.53785597 </v>
    <v>       0.77580677       0.55670356       0.27949819 </v>
    <v>       0.86565271       0.43099467       0.43282444 </v>
    <v>       0.77778000       0.55556000       0.04751000 </v>
    <v>       0.74308243       0.54390887       0.46494131 </v>
    <v>       0.65535355       0.33219756       0.35670246 </v>
    <v>       0.88889000       0.44444000       0.19748000 </v>
    <v>       1.00000000       0.66667000       0.12250000 </v>
    <v>       0.99265865       0.65899033       0.56306633 </v>
    <v>       0.10527366       0.88663833       0.27723715 </v>
    <v>       0.27177577       0.79809537       0.42978916 </v>
    <v>       0.11111000       0.88889000       0.04751000 </v>
    <v>       0.14635333       0.90343100       0.45137345 </v>
    <v>       0.00053769       0.66735787       0.35577879 </v>
    <v>       0.22222000       0.77778000       0.19748000 </v>
    <v>       0.33333000       0.66667000       0.12250000 </v>
    <v>       0.35685312       0.67755343       0.53289189 </v>
    <v>       0.44152125       0.88707670       0.27405902 </v>
    <v>       0.52265440       0.76507798       0.42459235 </v>
    <v>       0.44444000       0.88889000       0.04751000 </v>
    <v>       0.47784363       0.91796249       0.48300535 </v>
    <v>       0.32639883       0.66018147       0.34902048 </v>
    <v>       0.55556000       0.77778000       0.19748000 </v>
    <v>       0.66667000       0.66667000       0.12250000 </v>
    <v>       0.68964700       0.67085289       0.54165808 </v>
    <v>       0.77542316       0.88848810       0.27985744 </v>
    <v>       0.86984786       0.76753827       0.43257388 </v>
    <v>       0.77778000       0.88889000       0.04751000 </v>
    <v>       0.74196647       0.87144017       0.46525122 </v>
    <v>       0.65568763       0.66578667       0.35711651 </v>
    <v>       0.88889000       0.77778000       0.19748000 </v>
    <v>       0.33671773       0.98547857       0.45133597 </v>
    <v>       0.66065461       0.02306616       0.45729941 </v>
    <v>       0.33749593       0.31493720       0.45026559 </v>
    <v>       0.66170467       0.35829255       0.45548678 </v>
    <v>       0.33439126       0.65252786       0.45187869 </v>
    <v>       0.66521469       0.68891777       0.45733716 </v>
   </varray>
  </structure>
  <varray name="primitive_index" >
   <v type="int" >        1 </v>
   <v type="int" >        2 </v>
   <v type="int" >        3 </v>
   <v type="int" >        4 </v>
   <v type="int" >        5 </v>
   <v type="int" >        6 </v>
   <v type="int" >        7 </v>
   <v type="int" >        8 </v>
   <v type="int" >        9 </v>
   <v type="int" >       10 </v>
   <v type="int" >       11 </v>
   <v type="int" >       12 </v>
   <v type="int" >       13 </v>
   <v type="int" >       14 </v>
   <v type="int" >       15 </v>
   <v type="int" >       16 </v>
   <v type="int" >       17 </v>
   <v type="int" >       18 </v>
   <v type="int" >       19 </v>
   <v type="int" >       20 </v>
   <v type="int" >       21 </v>
   <v type="int" >       22 </v>
   <v type="int" >       23 </v>
   <v type="int" >       24 </v>
   <v type="int" >       25 </v>
   <v type="int" >       26 </v>
   <v type="int" >       27 </v>
   <v type="int" >       28 </v>
   <v type="int" >       29 </v>
   <v type="int" >       30 </v>
   <v type="int" >       31 </v>
   <v type="int" >       32 </v>
   <v type="int" >       33 </v>
   <v type="int" >       34 </v>
   <v type="int" >       35 </v>
   <v type="int" >       36 </v>
   <v type="int" >       37 </v>
   <v type="int" >       38 </v>
   <v type="int" >       39 </v>
   <v type="int" >       40 </v>
   <v type="int" >       41 </v>
   <v type="int" >       42 </v>
   <v type="int" >       43 </v>
   <v type="int" >       44 </v>
   <v type="int" >       45 </v>
   <v type="int" >       46 </v>
   <v type="int" >       47 </v>
   <v type="int" >       48 </v>
   <v type="int" >       49 </v>
   <v type="int" >       50 </v>
   <v type="int" >       51 </v>
   <v type="int" >       52 </v>
   <v type="int" >       53 </v>
   <v type="int" >       54 </v>
   <v type="int" >       55 </v>
   <v type="int" >       56 </v>
   <v type="int" >       57 </v>
   <v type="int" >       58 </v>
   <v type="int" >       59 </v>
   <v type="int" >       60 </v>
   <v type="int" >       61 </v>
   <v type="int" >       62 </v>
   <v type="int" >       63 </v>
   <v type="int" >       64 </v>
   <v type="int" >       65 </v>
   <v type="int" >       66 </v>
   <v type="int" >       67 </v>
   <v type="int" >       68 </v>
   <v type="int" >       69 </v>
   <v type="int" >       70 </v>
   <v type="int" >       71 </v>
   <v type="int" >       72 </v>
   <v type="int" >       73 </v>
   <v type="int" >       74 </v>
   <v type="int" >       75 </v>
   <v type="int" >       76 </v>
   <v type="int" >       77 </v>
   <v type="int" >       78 </v>
   <v type="int" >       79 </v>
   <v type="int" >       80 </v>
   <v type="int" >       81 </v>
   <v type="int" >       82 </v>
   <v type="int" >       83 </v>
   <v type="int" >       84 </v>
   <v type="int" >       85 </v>
   <v type="int" >       86 </v>
   <v type="int" >       87 </v>
   <v type="int" >       88 </v>
   <v type="int" >       89 </v>
   <v type="int" >       90 </v>
   <v type="int" >       91 </v>
   <v type="int" >       92 </v>
   <v type="int" >       93 </v>
   <v type="int" >       94 </v>
   <v type="int" >       95 </v>
   <v type="int" >       96 </v>
   <v type="int" >       97 </v>
   <v type="int" >       98 </v>
   <v type="int" >       99 </v>
  </varray>
 </primitive_cell>
 <kpoints>
  <generation param="Monkhorst-Pack">
   <v type="int" name="divisions">       3        3        1 </v>
   <v name="usershift">      0.00000000       0.00000000       0.00000000 </v>
   <v name="genvec1">      0.33333333      -0.00000000       0.00000000 </v>
   <v name="genvec2">      0.00000000       0.33333333       0.00000000 </v>
   <v name="genvec3">      0.00000000       0.00000000       1.00000000 </v>
   <v name="shift">      0.00000000       0.00000000       0.00000000 </v>
  </generation>
  <varray name="kpointlist" >
   <v>       0.00000000       0.00000000       0.00000000 </v>
   <v>       0.33333333      -0.00000000       0.00000000 </v>
   <v>       0.00000000       0.33333333       0.00000000 </v>
   <v>      -0.33333333       0.33333333       0.00000000 </v>
   <v>       0.33333333       0.33333333       0.00000000 </v>
  </varray>
  <varray name="weights" >
   <v>       0.11111111 </v>
   <v>       0.22222222 </v>
   <v>       0.22222222 </v>
   <v>       0.22222222 </v>
   <v>       0.22222222 </v>
  </varray>
 </kpoints>
 <parameters>
  <separator name="general" >
   <i type="string" name="SYSTEM">unknown system</i>
   <i type="logical" name="LCOMPAT"> F  </i>
  </separator>
  <separator name="electronic" >
   <i type="string" name="PREC">accura</i>
   <i name="ENMAX">    520.00000000</i>
   <i name="ENAUG">    605.39200000</i>
   <i name="EDIFF">      0.00000100</i>
   <i type="int" name="IALGO">    38</i>
   <i type="int" name="IWAVPR">    11</i>
   <i type="int" name="NBANDS">   480</i>
   <i type="int" name="NBANDSLOW">    -1</i>
   <i type="int" name="NBANDSHIGH">    -1</i>
   <i name="NELECT">    738.00000000</i>
   <i type="int" name="TURBO">     0</i>
   <i type="int" name="IRESTART">     0</i>
   <i type="int" name="NREBOOT">     0</i>
   <i type="int" name="NMIN">     0</i>
   <i name="EREF">      0.00000000</i>
   <separator name="electronic smearing" >
    <i type="int" name="ISMEAR">     0</i>
    <i name="SIGMA">      0.05000000</i>
    <i name="KSPACING">      0.50000000</i>
    <i type="logical" name="KGAMMA"> T  </i>
    <i type="logical" name="KBLOWUP"> T  </i>
   </separator>
   <separator name="electronic projectors" >
    <i type="logical" name="LREAL"> F  </i>
    <v name="ROPT">      0.00000000      0.00000000      0.00000000</v>
    <i type="int" name="LMAXPAW">  -100</i>
    <i type="int" name="LMAXMIX">     6</i>
    <i type="logical" name="NLSPLINE"> F  </i>
   </separator>
   <separator name="electronic startup" >
    <i type="int" name="ISTART">     0</i>
    <i type="int" name="ICHARG">     2</i>
    <i type="int" name="INIWAV">     1</i>
   </separator>
   <separator name="electronic spin" >
    <i type="int" name="ISPIN">     2</i>
    <i type="logical" name="LNONCOLLINEAR"> F  </i>
    <v name="MAGMOM">      1.00000000      1.00000000      1.00000000      1.00000000      1.00000000      1.00000000      1.00000000      1.00000000      1.00000000      1.00000000      1.00000000      1.00000000      1.00000000      1.00000000      1.00000000      1.00000000      1.00000000      1.00000000      1.00000000      1.00000000
      1.00000000      0.60000000      0.60000000      0.60000000      0.60000000      0.60000000      0.60000000      0.60000000      0.60000000      0.60000000      0.60000000      0.60000000      0.60000000      0.60000000      0.60000000      0.60000000      0.60000000      0.60000000      0.60000000      0.60000000
      0.60000000      0.60000000      0.60000000      0.60000000      0.60000000      0.60000000      0.60000000      0.60000000      0.60000000      0.60000000      0.60000000      0.60000000      0.60000000      0.60000000      0.60000000      0.60000000      0.60000000      0.60000000      0.60000000      0.60000000
      0.60000000      0.60000000      0.60000000      0.60000000      0.60000000      0.60000000      0.60000000      0.60000000      0.60000000      0.60000000      0.60000000      0.60000000      0.60000000      0.60000000      0.60000000      0.60000000      0.60000000      0.60000000      0.60000000      0.60000000
      0.60000000      0.60000000      0.60000000      0.60000000      0.60000000      0.60000000      0.60000000      0.60000000      0.60000000      0.60000000      0.60000000      0.60000000      0.60000000      0.60000000      0.60000000      0.60000000      0.60000000      0.60000000      0.60000000</v>
    <i name="NUPDOWN">     -1.00000000</i>
    <i type="logical" name="LSORBIT"> F  </i>
    <v name="SAXIS">      0.00000000      0.00000000      1.00000000</v>
    <i type="logical" name="LSPIRAL"> F  </i>
    <v name="QSPIRAL">      0.00000000      0.00000000      0.00000000</v>
    <i type="logical" name="LZEROZ"> F  </i>
   </separator>
   <separator name="electronic exchange-correlation" >
    <i type="logical" name="LASPH"> T  </i>
   </separator>
   <separator name="electronic convergence" >
    <i type="int" name="NELM">    90</i>
    <i type="int" name="NELMDL">     0</i>
    <i type="int" name="NELMIN">     6</i>
    <i name="ENINI">    520.00000000</i>
    <separator name="electronic convergence detail" >
     <i type="logical" name="LDIAG"> T  </i>
     <i type="logical" name="LSUBROT"> F  </i>
     <i name="WEIMIN">      0.00100000</i>
     <i name="EBREAK">      0.00000000</i>
     <i name="DEPER">      0.30000000</i>
     <i type="int" name="NRMM">     4</i>
     <i name="TIME">      0.40000000</i>
    </separator>
   </separator>
   <separator name="electronic mixer" >
    <i name="AMIX">      0.40000000</i>
    <i name="BMIX">      1.00000000</i>
    <i name="AMIN">      0.10000000</i>
    <i name="AMIX_MAG">      1.60000000</i>
    <i name="BMIX_MAG">      1.00000000</i>
    <separator name="electronic mixer details" >
     <i type="int" name="IMIX">     4</i>
     <i type="logical" name="MIXFIRST"> F  </i>
     <i type="int" name="MAXMIX">   -45</i>
     <i name="WC">    100.00000000</i>
     <i type="int" name="INIMIX">     1</i>
     <i type="int" name="MIXPRE">     1</i>
     <i type="int" name="MREMOVE">     5</i>
    </separator>
   </separator>
   <separator name="electronic dipolcorrection" >
    <i type="logical" name="LDIPOL"> F  </i>
    <i type="logical" name="LMONO"> F  </i>
    <i type="int" name="IDIPOL">     0</i>
    <i name="EPSILON">      1.00000000</i>
    <v name="DIPOL">   -100.00000000   -100.00000000   -100.00000000</v>
    <i name="EFIELD">      0.00000000</i>
    <i type="logical" name="LVACPOTAV"> F  </i>
   </separator>
  </separator>
  <separator name="grids" >
   <i type="int" name="NGX">    90</i>
   <i type="int" name="NGY">    90</i>
   <i type="int" name="NGZ">   160</i>
   <i type="int" name="NGXF">   180</i>
   <i type="int" name="NGYF">   180</i>
   <i type="int" name="NGZF">   320</i>
   <i type="logical" name="ADDGRID"> T  </i>
  </separator>
  <separator name="ionic" >
   <i type="int" name="NSW">   300</i>
   <i type="int" name="IBRION">     2</i>
   <i type="int" name="MDALGO">     0</i>
   <i type="int" name="ISIF">     2</i>
   <i name="PSTRESS">      0.00000000</i>
   <i name="EDIFFG">     -0.02000000</i>
   <i type="int" name="NFREE">     1</i>
   <i name="POTIM">      0.50000000</i>
   <i name="SMASS">     -3.00000000</i>
   <i name="SCALEE">      1.00000000</i>
  </separator>
  <separator name="ionic md" >
   <i name="TEBEG">      0.00010000</i>
   <i name="TEEND">      0.00010000</i>
   <i type="int" name="NBLOCK">     1</i>
   <i type="int" name="KBLOCK">   300</i>
   <i type="int" name="NPACO">   256</i>
   <i name="APACO">     10.00000000</i>
  </separator>
  <separator name="symmetry" >
   <i type="int" name="ISYM">     2</i>
   <i name="SYMPREC">      0.00001000</i>
  </separator>
  <separator name="dos" >
   <i type="int" name="LORBIT">     0</i>
   <v name="RWIGS">     -1.00000000     -1.00000000     -1.00000000</v>
   <i type="int" name="NEDOS">   301</i>
   <i name="EMIN">     10.00000000</i>
   <i name="EMAX">    -10.00000000</i>
   <i name="EFERMI">      0.00000000</i>
  </separator>
  <separator name="writing" >
   <i type="int" name="NWRITE">     2</i>
   <i type="logical" name="LWAVE"> F  </i>
   <i type="logical" name="LDOWNSAMPLE"> F  </i>
   <i type="logical" name="LCHARG"> F  </i>
   <i type="logical" name="LPARD"> F  </i>
   <i type="logical" name="LVTOT"> F  </i>
   <i type="logical" name="LVHAR"> F  </i>
   <i type="logical" name="LELF"> F  </i>
   <i type="logical" name="LOPTICS"> F  </i>
   <v name="STM">      0.00000000      0.00000000      0.00000000      0.00000000      0.00000000      0.00000000      0.00000000</v>
  </separator>
  <separator name="performance" >
   <i type="int" name="NPAR">    48</i>
   <i type="int" name="NSIM">     4</i>
   <i type="int" name="NBLK">    -1</i>
   <i type="logical" name="LPLANE"> T  </i>
   <i type="logical" name="LSCALAPACK"> T  </i>
   <i type="logical" name="LSCAAWARE"> T  </i>
   <i type="logical" name="LSCALU"> F  </i>
   <i type="logical" name="LASYNC"> F  </i>
   <i type="logical" name="LORBITALREAL"> F  </i>
  </separator>
  <separator name="miscellaneous" >
   <i type="int" name="IDIOT">     3</i>
   <i type="int" name="PHON_NSTRUCT">    -1</i>
   <i type="logical" name="LMUSIC"> F  </i>
   <v name="POMASS">    140.11500000     16.00000000    192.22000000</v>
   <v name="DARWINR">      0.00000000      0.00000000      0.00000000</v>
   <v name="DARWINV">      1.00000000      1.00000000      1.00000000</v>
   <i type="logical" name="LCORR"> T  </i>
  </separator>
  <i type="logical" name="GGA_COMPAT"> T  </i>
  <i type="logical" name="LBERRY"> F  </i>
  <i type="int" name="ICORELEVEL">     0</i>
  <i type="logical" name="LDAU"> T  </i>
  <v type="int" name="LDAUTYPE">     2</v>
  <v type="int" name="LDAUL">     3</v>
  <v name="LDAUU">      5.00000000</v>
  <v name="LDAUJ">      0.00000000</v>
  <i type="int" name="LDAUPRINT">     0</i>
  <i type="int" name="I_CONSTRAINED_M">     0</i>
  <separator name="electronic exchange-correlation" >
   <i type="string" name="GGA    ">PE</i>
   <i type="string" name="XC_C">1</i>
   <i type="int" name="VOSKOWN">     0</i>
   <i type="logical" name="LHFCALC"> F  </i>
   <i type="string" name="PRECFOCK"></i>
   <i type="logical" name="LSYMGRAD"> F  </i>
   <i type="logical" name="LHFONE"> F  </i>
   <i type="logical" name="LRHFCALC"> F  </i>
   <i type="logical" name="LTHOMAS"> F  </i>
   <i type="logical" name="LMODELHF"> F  </i>
   <i type="logical" name="LFOCKACE"> F  </i>
   <i name="ENCUT4O">     -1.00000000</i>
   <i type="int" name="EXXOEP">     0</i>
   <i type="int" name="FOURORBIT">     0</i>
   <i name="AEXX">      0.00000000</i>
   <i name="HFALPHA">      0.00000000</i>
   <i name="MCALPHA">      0.00000000</i>
   <i name="ALDAX">      1.00000000</i>
   <i name="AGGAX">      1.00000000</i>
   <i name="AMGGAX">      1.00000000</i>
   <i name="ALDAC">      1.00000000</i>
   <i name="AGGAC">      1.00000000</i>
   <i name="AMGGAC">      1.00000000</i>
   <i type="int" name="NKREDX">     1</i>
   <i type="int" name="NKREDY">     1</i>
   <i type="int" name="NKREDZ">     1</i>
   <i type="logical" name="SHIFTRED"> F  </i>
   <i type="logical" name="ODDONLY"> F  </i>
   <i type="logical" name="EVENONLY"> F  </i>
   <i type="int" name="LMAXFOCK">     0</i>
   <i type="int" name="NMAXFOCKAE">     0</i>
   <i type="logical" name="LFOCKAEDFT"> F  </i>
   <i name="HFSCREEN">      0.00000000</i>
   <i name="HFSCREENC">      0.00000000</i>
   <i type="int" name="NBANDSGWLOW">     0</i>
  </separator>
  <separator name="vdW DFT" >
   <i type="logical" name="LUSE_VDW"> F  </i>
   <i type="int" name="IVDW_NL">    -1</i>
   <i type="logical" name="LSPIN_VDW"> F  </i>
   <i name="ZAB_VDW">     -0.84910000</i>
   <i name="GAMMA_VDW">      1.39626340</i>
   <i name="ALPHA_VDW">      0.00000000</i>
   <i name="PARAM1">      0.12340000</i>
   <i name="PARAM2">      1.00000000</i>
   <i name="BPARAM">      6.30000000</i>
   <i name="CPARAM">      0.00930000</i>
  </separator>
  <separator name="model GW" >
   <i type="int" name="MODEL_GW">     0</i>
   <i name="MODEL_EPS0">     14.86082213</i>
   <i name="MODEL_ALPHA">      1.00000000</i>
  </separator>
  <separator name="linear response parameters" >
   <i type="logical" name="LEPSILON"> F  </i>
   <i type="logical" name="LRPA"> F  </i>
   <i type="logical" name="LNABLA"> F  </i>
   <i type="logical" name="LVEL"> F  </i>
   <i name="CSHIFT">      0.10000000</i>
   <i name="OMEGAMAX">     -1.00000000</i>
   <i name="DEG_THRESHOLD">      0.00200000</i>
   <i name="RTIME">     -0.10000000</i>
   <i name="WPLASMAI">      0.00000000</i>
   <v name="DFIELD">      0.00000000      0.00000000      0.00000000</v>
   <v name="WPLASMA">      0.00000000      0.00000000      0.00000000      0.00000000      0.00000000      0.00000000      0.00000000      0.00000000      0.00000000</v>
  </separator>
  <separator name="orbital magnetization" >
   <i type="logical" name="NUCIND"> F  </i>
   <v name="MAGPOS">      0.00000000      0.00000000      0.00000000</v>
   <i type="logical" name="LNICSALL"> T  </i>
   <i type="logical" name="ORBITALMAG"> F  </i>
   <i type="logical" name="LMAGBLOCH"> F  </i>
   <i type="logical" name="LCHIMAG"> F  </i>
   <i type="logical" name="LGAUGE"> T  </i>
   <i type="int" name="MAGATOM">     0</i>
   <v name="MAGDIPOL">      0.00000000      0.00000000      0.00000000</v>
   <v name="AVECCONST">      0.00000000      0.00000000      0.00000000</v>
  </separator>
  <separator name="response functions" >
   <i type="logical" name="LALL_IN_ONE"> F  </i>
   <i type="int" name="IALL_IN_ONE">    -1</i>
   <i type="int" name="NBANDS_WAVE">    -1</i>
   <i type="logical" name="LFINITE_TEMPERATURE"> F  </i>
   <i type="logical" name="LADDER"> F  </i>
   <i type="logical" name="LRPAFORCE"> F  </i>
   <i type="logical" name="LFXC"> F  </i>
   <i type="logical" name="LHARTREE"> T  </i>
   <i type="int" name="IBSE">     0</i>
   <v type="int" name="KPOINT">    -1     0     0     0</v>
   <i type="logical" name="LTCTC"> F  </i>
   <i type="logical" name="LTCTE"> F  </i>
   <i type="logical" name="LTETE"> F  </i>
   <i type="logical" name="LTRIPLET"> F  </i>
   <i type="logical" name="LFXCEPS"> F  </i>
   <i type="logical" name="LFXHEG"> F  </i>
   <i type="int" name="NATURALO">     2</i>
   <i type="logical" name="LHOLEGF"> F  </i>
   <i type="logical" name="L2ORDER"> F  </i>
   <i type="logical" name="LDMP1"> F  </i>
   <i type="logical" name="LMP2LT"> F  </i>
   <i type="logical" name="LSMP2LT"> F  </i>
   <i type="logical" name="LGWLF"> F  </i>
   <i name="ENCUTGW">     -1.60000002</i>
   <i name="ENCUTGWSOFT">     -1.60000002</i>
   <i name="ENCUTLF">     -1.00000000</i>
   <i type="logical" name="ESF_SPLINES"> F  </i>
   <i name="ESF_CONV">      0.01000000</i>
   <i type="int" name="ESF_NINTER">    15</i>
   <i type="int" name="LMAXMP2">    -1</i>
   <i name="SCISSOR">      0.00000000</i>
   <i type="int" name="NOMEGA">     0</i>
   <i type="int" name="NOMEGAR">     0</i>
   <i type="int" name="NBANDSGW">    -1</i>
   <i type="int" name="NBANDSO">    -1</i>
   <i type="int" name="NBANDSV">    -1</i>
   <i type="int" name="NELMGW">     1</i>
   <i type="int" name="NELMHF">     1</i>
   <i type="int" name="DIM">     3</i>
   <i type="int" name="IESPILON">     4</i>
   <i type="int" name="ANTIRES">     0</i>
   <i name="OMEGAMAX">    -30.00000000</i>
   <i name="OMEGAMIN">    -30.00000000</i>
   <i name="OMEGATL">   -200.00000000</i>
   <i type="int" name="OMEGAGRID">     0</i>
   <i name="CSHIFT">     -0.10000000</i>
   <i type="logical" name="LSELFENERGY"> F  </i>
   <i type="logical" name="LSPECTRAL"> F  </i>
   <i type="logical" name="LSPECTRALGW"> F  </i>
   <i type="logical" name="LSINGLES"> F  </i>
   <i type="logical" name="LFERMIGW"> F  </i>
   <i type="logical" name="ODDONLYGW"> F  </i>
   <i type="logical" name="EVENONLYGW"> F  </i>
   <i type="int" name="NKREDLFX">     1</i>
   <i type="int" name="NKREDLFY">     1</i>
   <i type="int" name="NKREDLFZ">     1</i>
   <i type="int" name="MAXMEM">  2800</i>
   <i type="int" name="TELESCOPE">     0</i>
   <i type="int" name="NTAUPAR">    -1</i>
   <i type="int" name="NOMEGAPAR">    -1</i>
   <i name="DAMP_NEWTON">      0.80000001</i>
   <i name="LAMBDA">      1.00000000</i>
  </separator>
  <separator name="External order field" >
   <i name="OFIELD_KAPPA">      0.00000000</i>
   <v name="OFIELD_K">      0.00000000      0.00000000      0.00000000</v>
   <i name="OFIELD_Q6_NEAR">      0.00000000</i>
   <i name="OFIELD_Q6_FAR">      0.00000000</i>
   <i name="OFIELD_A">      0.00000000</i>
  </separator>
  <separator name="optional k-points parameters" >
   <i type="int" name="KPOINTS_OPT_MODE">     1</i>
   <i type="logical" name="LKPOINTS_OPT"> F  </i>
  </separator>
 </parameters>
 <atominfo>
  <atoms>      99 </atoms>
  <types>       3 </types>
  <array name="atoms" >
   <dimension dim="1">ion</dimension>
   <field type="string">element</field>
   <field type="int">atomtype</field>
   <set>
    <rc><c>Ce</c><c>   1</c></rc>
    <rc><c>Ce</c><c>   1</c></rc>
    <rc><c>Ce</c><c>   1</c></rc>
    <rc><c>Ce</c><c>   1</c></rc>
    <rc><c>Ce</c><c>   1</c></rc>
    <rc><c>Ce</c><c>   1</c></rc>
    <rc><c>Ce</c><c>   1</c></rc>
    <rc><c>Ce</c><c>   1</c></rc>
    <rc><c>Ce</c><c>   1</c></rc>
    <rc><c>Ce</c><c>   1</c></rc>
    <rc><c>Ce</c><c>   1</c></rc>
    <rc><c>Ce</c><c>   1</c></rc>
    <rc><c>Ce</c><c>   1</c></rc>
    <rc><c>Ce</c><c>   1</c></rc>
    <rc><c>Ce</c><c>   1</c></rc>
    <rc><c>Ce</c><c>   1</c></rc>
    <rc><c>Ce</c><c>   1</c></rc>
    <rc><c>Ce</c><c>   1</c></rc>
    <rc><c>Ce</c><c>   1</c></rc>
    <rc><c>Ce</c><c>   1</c></rc>
    <rc><c>Ce</c><c>   1</c></rc>
    <rc><c>O </c><c>   2</c></rc>
    <rc><c>O </c><c>   2</c></rc>
    <rc><c>O </c><c>   2</c></rc>
    <rc><c>O </c><c>   2</c></rc>
    <rc><c>O </c><c>   2</c></rc>
    <rc><c>O </c><c>   2</c></rc>
    <rc><c>O </c><c>   2</c></rc>
    <rc><c>O </c><c>   2</c></rc>
    <rc><c>O </c><c>   2</c></rc>
    <rc><c>O </c><c>   2</c></rc>
    <rc><c>O </c><c>   2</c></rc>
    <rc><c>O </c><c>   2</c></rc>
    <rc><c>O </c><c>   2</c></rc>
    <rc><c>O </c><c>   2</c></rc>
    <rc><c>O </c><c>   2</c></rc>
    <rc><c>O </c><c>   2</c></rc>
    <rc><c>O </c><c>   2</c></rc>
    <rc><c>O </c><c>   2</c></rc>
    <rc><c>O </c><c>   2</c></rc>
    <rc><c>O </c><c>   2</c></rc>
    <rc><c>O </c><c>   2</c></rc>
    <rc><c>O </c><c>   2</c></rc>
    <rc><c>O </c><c>   2</c></rc>
    <rc><c>O </c><c>   2</c></rc>
    <rc><c>O </c><c>   2</c></rc>
    <rc><c>O </c><c>   2</c></rc>
    <rc><c>O </c><c>   2</c></rc>
    <rc><c>O </c><c>   2</c></rc>
    <rc><c>O </c><c>   2</c></rc>
    <rc><c>O </c><c>   2</c></rc>
    <rc><c>O </c><c>   2</c></rc>
    <rc><c>O </c><c>   2</c></rc>
    <rc><c>O </c><c>   2</c></rc>
    <rc><c>O </c><c>   2</c></rc>
    <rc><c>O </c><c>   2</c></rc>
    <rc><c>O </c><c>   2</c></rc>
    <rc><c>O </c><c>   2</c></rc>
    <rc><c>O </c><c>   2</c></rc>
    <rc><c>O </c><c>   2</c></rc>
    <rc><c>O </c><c>   2</c></rc>
    <rc><c>O </c><c>   2</c></rc>
    <rc><c>O </c><c>   2</c></rc>
    <rc><c>O </c><c>   2</c></rc>
    <rc><c>O </c><c>   2</c></rc>
    <rc><c>O </c><c>   2</c></rc>
    <rc><c>O </c><c>   2</c></rc>
    <rc><c>O </c><c>   2</c></rc>
    <rc><c>O </c><c>   2</c></rc>
    <rc><c>O </c><c>   2</c></rc>
    <rc><c>O </c><c>   2</c></rc>
    <rc><c>O </c><c>   2</c></rc>
    <rc><c>O </c><c>   2</c></rc>
    <rc><c>O </c><c>   2</c></rc>
    <rc><c>O </c><c>   2</c></rc>
    <rc><c>O </c><c>   2</c></rc>
    <rc><c>O </c><c>   2</c></rc>
    <rc><c>O </c><c>   2</c></rc>
    <rc><c>O </c><c>   2</c></rc>
    <rc><c>O </c><c>   2</c></rc>
    <rc><c>O </c><c>   2</c></rc>
    <rc><c>O </c><c>   2</c></rc>
    <rc><c>O </c><c>   2</c></rc>
    <rc><c>O </c><c>   2</c></rc>
    <rc><c>O </c><c>   2</c></rc>
    <rc><c>O </c><c>   2</c></rc>
    <rc><c>O </c><c>   2</c></rc>
    <rc><c>O </c><c>   2</c></rc>
    <rc><c>O </c><c>   2</c></rc>
    <rc><c>O </c><c>   2</c></rc>
    <rc><c>O </c><c>   2</c></rc>
    <rc><c>O </c><c>   2</c></rc>
    <rc><c>O </c><c>   2</c></rc>
    <rc><c>Ir</c><c>   3</c></rc>
    <rc><c>Ir</c><c>   3</c></rc>
    <rc><c>Ir</c><c>   3</c></rc>
    <rc><c>Ir</c><c>   3</c></rc>
    <rc><c>Ir</c><c>   3</c></rc>
    <rc><c>Ir</c><c>   3</c></rc>
   </set>
  </array>
  <array name="atomtypes" >
   <dimension dim="1">type</dimension>
   <field type="int">atomspertype</field>
   <field type="string">element</field>
   <field>mass</field>
   <field>valence</field>
   <field type="string">pseudopotential</field>
   <set>
    <rc><c>  21</c><c>Ce</c><c>    140.11500000</c><c>     12.00000000</c><c>  PAW_PBE Ce 23Dec2003                  </c></rc>
    <rc><c>  72</c><c>O </c><c>     16.00000000</c><c>      6.00000000</c><c>  PAW_PBE O 08Apr2002                   </c></rc>
    <rc><c>   6</c><c>Ir</c><c>    192.22000000</c><c>      9.00000000</c><c>  PAW_PBE Ir 06Sep2000                  </c></rc>
   </set>
  </array>
 </atominfo>
 <structure name="initialpos" >
  <crystal>
   <varray name="basis" >
    <v>      11.59820000       0.00000000       0.00000000 </v>
    <v>      -5.79910000      10.04433584       0.00000000 </v>
    <v>       0.00000000       0.00000000      21.04820000 </v>
   </varray>
   <i name="volume">   2452.03565189 </i>
   <varray name="rec_basis" >
    <v>       0.08622028       0.04977930       0.00000000 </v>
    <v>       0.00000000       0.09955860       0.00000000 </v>
    <v>       0.00000000       0.00000000       0.04751000 </v>
   </varray>
  </crystal>
  <varray name="positions" >
   <v>       0.00003245       0.99990597       0.47326085 </v>
   <v>       0.21457054       0.10766198       0.31291103 </v>
   <v>       0.11111000       0.22222000       0.15999000 </v>
   <v>       0.55198733       0.11013884       0.31081798 </v>
   <v>       0.44444000       0.22222000       0.15999000 </v>
   <v>       0.88765297       0.11085958       0.31881716 </v>
   <v>       0.77778000       0.22222000       0.15999000 </v>
   <v>       0.00026977       0.33210223       0.47322461 </v>
   <v>       0.21380207       0.43852001       0.31294951 </v>
   <v>       0.11111000       0.55556000       0.15999000 </v>
   <v>       0.55089481       0.44284764       0.31116055 </v>
   <v>       0.44444000       0.55556000       0.15999000 </v>
   <v>       0.88740642       0.44355552       0.31886299 </v>
   <v>       0.77778000       0.55556000       0.15999000 </v>
   <v>       0.99914108       0.66559609       0.47433286 </v>
   <v>       0.21391715       0.77321466       0.31287740 </v>
   <v>       0.11111000       0.88889000       0.15999000 </v>
   <v>       0.55174985       0.77690106       0.31091526 </v>
   <v>       0.44444000       0.88889000       0.15999000 </v>
   <v>       0.88736796       0.77745868       0.31902912 </v>
   <v>       0.77778000       0.88889000       0.15999000 </v>
   <v>       0.00000000       0.00000000       0.12250000 </v>
   <v>       0.99768274       0.99628963       0.56249867 </v>
   <v>       0.10601204       0.21888436       0.27696733 </v>
   <v>       0.27143676       0.12976520       0.43090862 </v>
   <v>       0.11111000       0.22222000       0.04751000 </v>
   <v>       0.14842714       0.24016093       0.45128224 </v>
   <v>       0.00144205       0.00041847       0.35579658 </v>
   <v>       0.22222000       0.11111000       0.19748000 </v>
   <v>       0.33333000       0.00000000       0.12250000 </v>
   <v>       0.35720841       0.01181656       0.53362779 </v>
   <v>       0.44061446       0.22008049       0.27375196 </v>
   <v>       0.52505680       0.09270114       0.42247440 </v>
   <v>       0.44444000       0.22222000       0.04751000 </v>
   <v>       0.47570540       0.24939193       0.48050708 </v>
   <v>       0.32666684       0.99345736       0.34920024 </v>
   <v>       0.55556000       0.11111000       0.19748000 </v>
   <v>       0.66667000       0.00000000       0.12250000 </v>
   <v>       0.69012764       0.99679654       0.53690623 </v>
   <v>       0.77507883       0.22189952       0.27925694 </v>
   <v>       0.86672681       0.09865284       0.43195000 </v>
   <v>       0.77778000       0.22222000       0.04751000 </v>
   <v>       0.74334622       0.20568593       0.46587096 </v>
   <v>       0.65634452       0.99941413       0.35749489 </v>
   <v>       0.88889000       0.11111000       0.19748000 </v>
   <v>       0.00000000       0.33333000       0.12250000 </v>
   <v>       0.99462307       0.32248231       0.56373782 </v>
   <v>       0.10504836       0.55332712       0.27657059 </v>
   <v>       0.26817236       0.46356395       0.43033667 </v>
   <v>       0.11111000       0.55556000       0.04751000 </v>
   <v>       0.14636927       0.57201238       0.45180124 </v>
   <v>       0.00026861       0.33399212       0.35533632 </v>
   <v>       0.22222000       0.44444000       0.19748000 </v>
   <v>       0.33333000       0.33333000       0.12250000 </v>
   <v>       0.35577409       0.34609627       0.53468980 </v>
   <v>       0.44151844       0.55381350       0.27377970 </v>
   <v>       0.52919565       0.42540666       0.42241979 </v>
   <v>       0.44444000       0.55556000       0.04751000 </v>
   <v>       0.48173753       0.58270478       0.47736228 </v>
   <v>       0.32754523       0.32683528       0.34992762 </v>
   <v>       0.55556000       0.44444000       0.19748000 </v>
   <v>       0.66667000       0.33333000       0.12250000 </v>
   <v>       0.68886058       0.33216634       0.53785597 </v>
   <v>       0.77580677       0.55670356       0.27949819 </v>
   <v>       0.86565271       0.43099467       0.43282444 </v>
   <v>       0.77778000       0.55556000       0.04751000 </v>
   <v>       0.74308243       0.54390887       0.46494131 </v>
   <v>       0.65535355       0.33219756       0.35670246 </v>
   <v>       0.88889000       0.44444000       0.19748000 </v>
   <v>       0.00000000       0.66667000       0.12250000 </v>
   <v>       0.99265865       0.65899033       0.56306633 </v>
   <v>       0.10527366       0.88663833       0.27723715 </v>
   <v>       0.27177577       0.79809537       0.42978916 </v>
   <v>       0.11111000       0.88889000       0.04751000 </v>
   <v>       0.14635333       0.90343100       0.45137345 </v>
   <v>       0.00053769       0.66735787       0.35577879 </v>
   <v>       0.22222000       0.77778000       0.19748000 </v>
   <v>       0.33333000       0.66667000       0.12250000 </v>
   <v>       0.35685312       0.67755343       0.53289189 </v>
   <v>       0.44152125       0.88707670       0.27405902 </v>
   <v>       0.52265440       0.76507798       0.42459235 </v>
   <v>       0.44444000       0.88889000       0.04751000 </v>
   <v>       0.47784363       0.91796249       0.48300535 </v>
   <v>       0.32639883       0.66018147       0.34902048 </v>
   <v>       0.55556000       0.77778000       0.19748000 </v>
   <v>       0.66667000       0.66667000       0.12250000 </v>
   <v>       0.68964700       0.67085289       0.54165808 </v>
   <v>       0.77542316       0.88848810       0.27985744 </v>
   <v>       0.86984786       0.76753827       0.43257388 </v>
   <v>       0.77778000       0.88889000       0.04751000 </v>
   <v>       0.74196647       0.87144017       0.46525122 </v>
   <v>       0.65568763       0.66578667       0.35711651 </v>
   <v>       0.88889000       0.77778000       0.19748000 </v>
   <v>       0.33671773       0.98547857       0.45133597 </v>
   <v>       0.66065461       0.02306616       0.45729941 </v>
   <v>       0.33749593       0.31493720       0.45026559 </v>
   <v>       0.66170467       0.35829255       0.45548678 </v>
   <v>       0.33439126       0.65252786       0.45187869 </v>
   <v>       0.66521469       0.68891777       0.45733716 </v>
  </varray>
  <varray name="selective"  type="logical" >
   <v type="logical" >  T  T  T </v>
   <v type="logical" >  T  T  T </v>
   <v type="logical" >  F  F  F </v>
   <v type="logical" >  T  T  T </v>
   <v type="logical" >  F  F  F </v>
   <v type="logical" >  T  T  T </v>
   <v type="logical" >  F  F  F </v>
   <v type="logical" >  T  T  T </v>
   <v type="logical" >  T  T  T </v>
   <v type="logical" >  F  F  F </v>
   <v type="logical" >  T  T  T </v>
   <v type="logical" >  F  F  F </v>
   <v type="logical" >  T  T  T </v>
   <v type="logical" >  F  F  F </v>
   <v type="logical" >  T  T  T </v>
   <v type="logical" >  T  T  T </v>
   <v type="logical" >  F  F  F </v>
   <v type="logical" >  T  T  T </v>
   <v type="logical" >  F  F  F </v>
   <v type="logical" >  T  T  T </v>
   <v type="logical" >  F  F  F </v>
   <v type="logical" >  F  F  F </v>
   <v type="logical" >  T  T  T </v>
   <v type="logical" >  T  T  T </v>
   <v type="logical" >  T  T  T </v>
   <v type="logical" >  F  F  F </v>
   <v type="logical" >  T  T  T </v>
   <v type="logical" >  T  T  T </v>
   <v type="logical" >  F  F  F </v>
   <v type="logical" >  F  F  F </v>
   <v type="logical" >  T  T  T </v>
   <v type="logical" >  T  T  T </v>
   <v type="logical" >  T  T  T </v>
   <v type="logical" >  F  F  F </v>
   <v type="logical" >  T  T  T </v>
   <v type="logical" >  T  T  T </v>
   <v type="logical" >  F  F  F </v>
   <v type="logical" >  F  F  F </v>
   <v type="logical" >  T  T  T </v>
   <v type="logical" >  T  T  T </v>
   <v type="logical" >  T  T  T </v>
   <v type="logical" >  F  F  F </v>
   <v type="logical" >  T  T  T </v>
   <v type="logical" >  T  T  T </v>
   <v type="logical" >  F  F  F </v>
   <v type="logical" >  F  F  F </v>
   <v type="logical" >  T  T  T </v>
   <v type="logical" >  T  T  T </v>
   <v type="logical" >  T  T  T </v>
   <v type="logical" >  F  F  F </v>
   <v type="logical" >  T  T  T </v>
   <v type="logical" >  T  T  T </v>
   <v type="logical" >  F  F  F </v>
   <v type="logical" >  F  F  F </v>
   <v type="logical" >  T  T  T </v>
   <v type="logical" >  T  T  T </v>
   <v type="logical" >  T  T  T </v>
   <v type="logical" >  F  F  F </v>
   <v type="logical" >  T  T  T </v>
   <v type="logical" >  T  T  T </v>
   <v type="logical" >  F  F  F </v>
   <v type="logical" >  F  F  F </v>
   <v type="logical" >  T  T  T </v>
   <v type="logical" >  T  T  T </v>
   <v type="logical" >  T  T  T </v>
   <v type="logical" >  F  F  F </v>
   <v type="logical" >  T  T  T </v>
   <v type="logical" >  T  T  T </v>
   <v type="logical" >  F  F  F </v>
   <v type="logical" >  F  F  F </v>
   <v type="logical" >  T  T  T </v>
   <v type="logical" >  T  T  T </v>
   <v type="logical" >  T  T  T </v>
   <v type="logical" >  F  F  F </v>
   <v type="logical" >  T  T  T </v>
   <v type="logical" >  T  T  T </v>
   <v type="logical" >  F  F  F </v>
   <v type="logical" >  F  F  F </v>
   <v type="logical" >  T  T  T </v>
   <v type="logical" >  T  T  T </v>
   <v type="logical" >  T  T  T </v>
   <v type="logical" >  F  F  F </v>
   <v type="logical" >  T  T  T </v>
   <v type="logical" >  T  T  T </v>
   <v type="logical" >  F  F  F </v>
   <v type="logical" >  F  F  F </v>
   <v type="logical" >  T  T  T </v>
   <v type="logical" >  T  T  T </v>
   <v type="logical" >  T  T  T </v>
   <v type="logical" >  F  F  F </v>
   <v type="logical" >  T  T  T </v>
   <v type="logical" >  T  T  T </v>
   <v type="logical" >  F  F  F </v>
   <v type="logical" >  T  T  T </v>
   <v type="logical" >  T  T  T </v>
   <v type="logical" >  T  T  T </v>
   <v type="logical" >  T  T  T </v>
   <v type="logical" >  T  T  T </v>
   <v type="logical" >  T  T  T </v>
  </varray>
  <nose>
   <v>      -3.00000000       0.00000000       0.00010000       0.00010000 </v>
  </nose>
 </structure>
 <calculation>
  <scstep>
   <time name="dav">   20.93   21.08</time>
   <time name="total">   22.32   22.59</time>
   <energy>
    <i name="alphaZ">   1839.19756306 </i>
    <i name="ewald"> 130109.61626401 </i>
    <i name="hartreedc">-183091.04226941 </i>
    <i name="XCdc">   1990.86629759 </i>
    <i name="pawpsdc">  46122.55799334 </i>
    <i name="pawaedc"> -45467.04419015 </i>
    <i name="eentropy">     -0.02117365 </i>
    <i name="bandstr">   3266.73842014 </i>
    <i name="atom">  56815.39572979 </i>
    <i name="e_fr_energy">  11586.26463471 </i>
    <i name="e_wo_entrp">  11586.28580836 </i>
    <i name="e_0_energy">  11586.27522154 </i>
   </energy>
  </scstep>
  <scstep>
   <time name="dav">   22.99   23.00</time>
   <time name="total">   22.99   23.00</time>
   <energy>
    <i name="e_fr_energy">   3014.93972092 </i>
    <i name="e_wo_entrp">   3015.11274422 </i>
    <i name="e_0_energy">   3015.02623257 </i>
   </energy>
  </scstep>
  <scstep>
   <time name="dav">   27.19   27.20</time>
   <time name="total">   27.19   27.20</time>
   <energy>
    <i name="e_fr_energy">   -390.26495253 </i>
    <i name="e_wo_entrp">   -390.25702185 </i>
    <i name="e_0_energy">   -390.26098719 </i>
   </energy>
  </scstep>
  <scstep>
   <time name="dav">   29.46   29.48</time>
   <time name="total">   29.47   29.48</time>
   <energy>
    <i name="e_fr_energy">   -885.60370482 </i>
    <i name="e_wo_entrp">   -885.60260784 </i>
    <i name="e_0_energy">   -885.60315633 </i>
   </energy>
  </scstep>
  <scstep>
   <time name="dav">   31.92   31.94</time>
   <time name="total">   33.26   33.29</time>
   <energy>
    <i name="e_fr_energy">   -907.50099162 </i>
    <i name="e_wo_entrp">   -907.50060163 </i>
    <i name="e_0_energy">   -907.50079662 </i>
   </energy>
  </scstep>
  <scstep>
   <time name="dav">   33.06   33.08</time>
   <time name="total">   35.70   35.72</time>
   <energy>
    <i name="e_fr_energy">  -1502.90541183 </i>
    <i name="e_wo_entrp">  -1502.75822311 </i>
    <i name="e_0_energy">  -1502.83181747 </i>
   </energy>
  </scstep>
  <scstep>
   <time name="dav">   29.06   29.08</time>
   <time name="total">   31.70   31.71</time>
   <energy>
    <i name="e_fr_energy">  -1924.30759149 </i>
    <i name="e_wo_entrp">  -1924.14180699 </i>
    <i name="e_0_energy">  -1924.22469924 </i>
   </energy>
  </scstep>
  <scstep>
   <time name="dav">   27.42   27.44</time>
   <time name="total">   30.04   30.06</time>
   <energy>
    <i name="e_fr_energy">  -1882.02732195 </i>
    <i name="e_wo_entrp">  -1881.99478280 </i>
    <i name="e_0_energy">  -1882.01105237 </i>
   </energy>
  </scstep>
  <scstep>
   <time name="dav">   29.40   29.41</time>
   <time name="total">   32.02   32.04</time>
   <energy>
    <i name="e_fr_energy">  -1899.09553037 </i>
    <i name="e_wo_entrp">  -1899.06618100 </i>
    <i name="e_0_energy">  -1899.08085569 </i>
   </energy>
  </scstep>
  <scstep>
   <time name="dav">   30.92   30.94</time>
   <time name="total">   33.58   33.60</time>
   <energy>
    <i name="e_fr_energy">   -964.06600426 </i>
    <i name="e_wo_entrp">   -963.93286109 </i>
    <i name="e_0_energy">   -963.99943267 </i>
   </energy>
  </scstep>
  <scstep>
   <time name="dav">   31.92   31.93</time>
   <time name="total">   34.54   34.56</time>
   <energy>
    <i name="e_fr_energy">  -1054.48593848 </i>
    <i name="e_wo_entrp">  -1054.40033255 </i>
    <i name="e_0_energy">  -1054.44313552 </i>
   </energy>
  </scstep>
  <scstep>
   <time name="dav">   31.10   31.12</time>
   <time name="total">   33.76   33.78</time>
   <energy>
    <i name="e_fr_energy">   -673.63362901 </i>
    <i name="e_wo_entrp">   -673.49579472 </i>
    <i name="e_0_energy">   -673.56471187 </i>
   </energy>
  </scstep>
  <scstep>
   <time name="dav">   32.51   32.53</time>
   <time name="total">   35.14   35.16</time>
   <energy>
    <i name="e_fr_energy">   -798.28703820 </i>
    <i name="e_wo_entrp">   -798.21646824 </i>
    <i name="e_0_energy">   -798.25175322 </i>
   </energy>
  </scstep>
  <scstep>
   <time name="dav">   32.07   32.09</time>
   <time name="total">   34.69   34.71</time>
   <energy>
    <i name="e_fr_energy">   -680.62178588 </i>
    <i name="e_wo_entrp">   -680.51705261 </i>
    <i name="e_0_energy">   -680.56941925 </i>
   </energy>
  </scstep>
  <scstep>
   <time name="dav">   33.15   33.17</time>
   <time name="total">   35.76   35.78</time>
   <energy>
    <i name="e_fr_energy">   -667.13478741 </i>
    <i name="e_wo_entrp">   -667.03504354 </i>
    <i name="e_0_energy">   -667.08491547 </i>
   </energy>
  </scstep>
  <scstep>
   <time name="dav">   29.17   29.18</time>
   <time name="total">   31.82   31.83</time>
   <energy>
    <i name="e_fr_energy">   -656.99322045 </i>
    <i name="e_wo_entrp">   -656.88790944 </i>
    <i name="e_0_energy">   -656.94056495 </i>
   </energy>
  </scstep>
  <scstep>
   <time name="dav">   30.46   30.48</time>
   <time name="total">   33.08   33.10</time>
   <energy>
    <i name="e_fr_energy">   -658.68281918 </i>
    <i name="e_wo_entrp">   -658.61516305 </i>
    <i name="e_0_energy">   -658.64899111 </i>
   </energy>
  </scstep>
  <scstep>
   <time name="dav">   33.29   33.30</time>
   <time name="total">   35.94   35.96</time>
   <energy>
    <i name="e_fr_energy">   -662.09667126 </i>
    <i name="e_wo_entrp">   -661.99227227 </i>
    <i name="e_0_energy">   -662.04447176 </i>
   </energy>
  </scstep>
  <scstep>
   <time name="dav">   33.50   33.51</time>
   <time name="total">   36.13   36.15</time>
   <energy>
    <i name="e_fr_energy">   -665.63393631 </i>
    <i name="e_wo_entrp">   -665.60523824 </i>
    <i name="e_0_energy">   -665.61958727 </i>
   </energy>
  </scstep>
  <scstep>
   <time name="dav">   31.32   31.34</time>
   <time name="total">   33.95   33.97</time>
   <energy>
    <i name="e_fr_energy">   -661.47779113 </i>
    <i name="e_wo_entrp">   -661.39451950 </i>
    <i name="e_0_energy">   -661.43615531 </i>
   </energy>
  </scstep>
  <scstep>
   <time name="dav">   32.81   32.82</time>
   <time name="total">   35.44   35.46</time>
   <energy>
    <i name="e_fr_energy">   -660.11683828 </i>
    <i name="e_wo_entrp">   -660.04705498 </i>
    <i name="e_0_energy">   -660.08194663 </i>
   </energy>
  </scstep>
  <scstep>
   <time name="dav">   30.17   30.19</time>
   <time name="total">   32.80   32.82</time>
   <energy>
    <i name="e_fr_energy">   -657.58697450 </i>
    <i name="e_wo_entrp">   -657.53612541 </i>
    <i name="e_0_energy">   -657.56154995 </i>
   </energy>
  </scstep>
  <scstep>
   <time name="dav">   30.56   30.57</time>
   <time name="total">   33.20   33.21</time>
   <energy>
    <i name="e_fr_energy">   -656.60662155 </i>
    <i name="e_wo_entrp">   -656.53313194 </i>
    <i name="e_0_energy">   -656.56987675 </i>
   </energy>
  </scstep>
  <scstep>
   <time name="dav">   30.12   30.13</time>
   <time name="total">   32.77   32.78</time>
   <energy>
    <i name="e_fr_energy">   -656.78426689 </i>
    <i name="e_wo_entrp">   -656.69743244 </i>
    <i name="e_0_energy">   -656.74084967 </i>
   </energy>
  </scstep>
  <scstep>
   <time name="dav">   31.15   31.16</time>
   <time name="total">   33.80   33.82</time>
   <energy>
    <i name="e_fr_energy">   -656.39181841 </i>
    <i name="e_wo_entrp">   -656.31959398 </i>
    <i name="e_0_energy">   -656.35570620 </i>
   </energy>
  </scstep>
  <scstep>
   <time name="dav">   32.07   32.08</time>
   <time name="total">   34.70   34.72</time>
   <energy>
    <i name="e_fr_energy">   -656.57985488 </i>
    <i name="e_wo_entrp">   -656.50515575 </i>
    <i name="e_0_energy">   -656.54250532 </i>
   </energy>
  </scstep>
  <scstep>
   <time name="dav">   29.55   29.57</time>
   <time name="total">   32.21   32.22</time>
   <energy>
    <i name="e_fr_energy">   -656.14219980 </i>
    <i name="e_wo_entrp">   -656.06430501 </i>
    <i name="e_0_energy">   -656.10325240 </i>
   </energy>
  </scstep>
  <scstep>
   <time name="dav">   27.64   27.66</time>
   <time name="total">   30.27   30.28</time>
   <energy>
    <i name="e_fr_energy">   -656.48574647 </i>
    <i name="e_wo_entrp">   -656.40829499 </i>
    <i name="e_0_energy">   -656.44702073 </i>
   </energy>
  </scstep>
  <scstep>
