<?xml version="1.0" encoding="ISO-8859-1"?>
<modeling>
 <generator>
  <i name="program" type="string">vasp </i>
  <i name="version" type="string">6.4.3  </i>
  <i name="subversion" type="string">19Mar24 (build Mar 01 2025 17:53:50) complex                          parallel </i>
  <i name="platform" type="string">Shaheen </i>
  <i name="date" type="string">2025 04 21 </i>
  <i name="time" type="string">16:36:36 </i>
 </generator>
 <incar>
  <i type="int" name="ISTART">     1</i>
  <i type="string" name="PREC">Accurate   (Precision level: Normal or Accurate, set Accurate when perform structure lattice relaxation calculation)</i>
  <i type="logical" name="ADDGRID"> T  </i>
  <i type="int" name="ISPIN">     2</i>
  <i type="int" name="NELM">    90</i>
  <i type="int" name="NELMIN">     6</i>
  <i type="int" name="IBRION">     2</i>
  <i name="EDIFF">      0.00000100</i>
  <i name="EDIFFG">     -0.02000000</i>
  <i type="int" name="NSW">   300</i>
  <i type="int" name="ISIF">     2</i>
  <i name="ENCUT">    520.00000000</i>
  <v name="MAGMOM">      1.00000000      1.00000000      1.00000000      1.00000000      1.00000000      1.00000000      1.00000000      1.00000000      1.00000000      1.00000000      1.00000000      1.00000000      1.00000000      1.00000000      1.00000000      1.00000000      1.00000000      1.00000000      1.00000000      1.00000000
      1.00000000      0.60000000      0.60000000      0.60000000      0.60000000      0.60000000      0.60000000      0.60000000      0.60000000      0.60000000      0.60000000      0.60000000      0.60000000      0.60000000      0.60000000      0.60000000      0.60000000      0.60000000      0.60000000      0.60000000
      0.60000000      0.60000000      0.60000000      0.60000000      0.60000000      0.60000000      0.60000000      0.60000000      0.60000000      0.60000000      0.60000000      0.60000000      0.60000000      0.60000000      0.60000000      0.60000000      0.60000000      0.60000000      0.60000000      0.60000000
      0.60000000      0.60000000      0.60000000      0.60000000      0.60000000      0.60000000      0.60000000      0.60000000      0.60000000      0.60000000      0.60000000      0.60000000      0.60000000      0.60000000      0.60000000      0.60000000      0.60000000      0.60000000      0.60000000      0.60000000
      0.60000000      0.60000000      0.60000000      0.60000000      0.60000000      0.60000000      0.60000000      0.60000000      0.60000000      0.60000000      0.60000000      0.60000000      0.60000000      0.60000000      0.60000000      0.60000000      0.60000000      0.60000000      0.60000000</v>
  <i type="logical" name="LREAL"> F  </i>
  <i type="int" name="ISMEAR">     0</i>
  <i name="SIGMA">      0.05000000</i>
  <i type="int" name="LMAXMIX">     6</i>
  <i type="logical" name="LWAVE"> F  </i>
  <i type="logical" name="LCHARG"> F  </i>
  <i type="logical" name="LASPH"> T  </i>
  <i type="logical" name="LDAU"> T  </i>
  <i type="int" name="LDAUTYPE">     2</i>
  <v type="int" name="LDAUL">     3    -1     2</v>
  <v name="LDAUU">      5.00000000      0.00000000      2.00000000</v>
  <v name="LDAUJ">      0.00000000      0.00000000      0.00000000</v>
 </incar>
 <primitive_cell>
  <structure name="primitive_cell" >
   <crystal>
    <varray name="basis" >
     <v>      11.59820000       0.00000000       0.00000000 </v>
     <v>      -5.79910000      10.04433584       0.00000000 </v>
     <v>       0.00000000       0.00000000      21.04820000 </v>
    </varray>
    <i name="volume">   2452.03565189 </i>
    <varray name="rec_basis" >
     <v>       0.08622028       0.04977930       0.00000000 </v>
     <v>       0.00000000       0.09955860       0.00000000 </v>
     <v>       0.00000000       0.00000000       0.04751000 </v>
    </varray>
   </crystal>
   <varray name="positions" >
    <v>       0.00003245       0.99990597       0.47326085 </v>
    <v>       0.21457054       0.10766198       0.31291103 </v>
    <v>       0.11111000       0.22222000       0.15999000 </v>
    <v>       0.55198733       0.11013884       0.31081798 </v>
    <v>       0.44444000       0.22222000       0.15999000 </v>
    <v>       0.88765297       0.11085958       0.31881716 </v>
    <v>       0.77778000       0.22222000       0.15999000 </v>
    <v>       0.00026977       0.33210223       0.47322461 </v>
    <v>       0.21380207       0.43852001       0.31294951 </v>
    <v>       0.11111000       0.55556000       0.15999000 </v>
    <v>       0.55089481       0.44284764       0.31116055 </v>
    <v>       0.44444000       0.55556000       0.15999000 </v>
    <v>       0.88740642       0.44355552       0.31886299 </v>
    <v>       0.77778000       0.55556000       0.15999000 </v>
    <v>       0.99914108       0.66559609       0.47433286 </v>
    <v>       0.21391715       0.77321466       0.31287740 </v>
    <v>       0.11111000       0.88889000       0.15999000 </v>
    <v>       0.55174985       0.77690106       0.31091526 </v>
    <v>       0.44444000       0.88889000       0.15999000 </v>
    <v>       0.88736796       0.77745868       0.31902912 </v>
    <v>       0.77778000       0.88889000       0.15999000 </v>
    <v>       0.00000000       0.00000000       0.12250000 </v>
    <v>       0.99768274       0.99628963       0.56249867 </v>
    <v>       0.10601204       0.21888436       0.27696733 </v>
    <v>       0.27143676       0.12976520       0.43090862 </v>
    <v>       0.11111000       0.22222000       0.04751000 </v>
    <v>       0.14842714       0.24016093       0.45128224 </v>
    <v>       0.00144205       0.00041847       0.35579658 </v>
    <v>       0.22222000       0.11111000       0.19748000 </v>
    <v>       0.33333000       0.00000000       0.12250000 </v>
    <v>       0.35720841       0.01181656       0.53362779 </v>
    <v>       0.44061446       0.22008049       0.27375196 </v>
    <v>       0.52505680       0.09270114       0.42247440 </v>
    <v>       0.44444000       0.22222000       0.04751000 </v>
    <v>       0.47570540       0.24939193       0.48050708 </v>
    <v>       0.32666684       0.99345736       0.34920024 </v>
    <v>       0.55556000       0.11111000       0.19748000 </v>
    <v>       0.66667000       0.00000000       0.12250000 </v>
    <v>       0.69012764       0.99679654       0.53690623 </v>
    <v>       0.77507883       0.22189952       0.27925694 </v>
    <v>       0.86672681       0.09865284       0.43195000 </v>
    <v>       0.77778000       0.22222000       0.04751000 </v>
    <v>       0.74334622       0.20568593       0.46587096 </v>
    <v>       0.65634452       0.99941413       0.35749489 </v>
    <v>       0.88889000       0.11111000       0.19748000 </v>
    <v>       1.00000000       0.33333000       0.12250000 </v>
    <v>       0.99462307       0.32248231       0.56373782 </v>
    <v>       0.10504836       0.55332712       0.27657059 </v>
    <v>       0.26817236       0.46356395       0.43033667 </v>
    <v>       0.11111000       0.55556000       0.04751000 </v>
    <v>       0.14636927       0.57201238       0.45180124 </v>
    <v>       0.00026861       0.33399212       0.35533632 </v>
    <v>       0.22222000       0.44444000       0.19748000 </v>
    <v>       0.33333000       0.33333000       0.12250000 </v>
    <v>       0.35577409       0.34609627       0.53468980 </v>
    <v>       0.44151844       0.55381350       0.27377970 </v>
    <v>       0.52919565       0.42540666       0.42241979 </v>
    <v>       0.44444000       0.55556000       0.04751000 </v>
    <v>       0.48173753       0.58270478       0.47736228 </v>
    <v>       0.32754523       0.32683528       0.34992762 </v>
    <v>       0.55556000       0.44444000       0.19748000 </v>
    <v>       0.66667000       0.33333000       0.12250000 </v>
    <v>       0.68886058       0.33216634       0.53785597 </v>
    <v>       0.77580677       0.55670356       0.27949819 </v>
    <v>       0.86565271       0.43099467       0.43282444 </v>
    <v>       0.77778000       0.55556000       0.04751000 </v>
    <v>       0.74308243       0.54390887       0.46494131 </v>
    <v>       0.65535355       0.33219756       0.35670246 </v>
    <v>       0.88889000       0.44444000       0.19748000 </v>
    <v>       1.00000000       0.66667000       0.12250000 </v>
    <v>       0.99265865       0.65899033       0.56306633 </v>
    <v>       0.10527366       0.88663833       0.27723715 </v>
    <v>       0.27177577       0.79809537       0.42978916 </v>
    <v>       0.11111000       0.88889000       0.04751000 </v>
    <v>       0.14635333       0.90343100       0.45137345 </v>
    <v>       0.00053769       0.66735787       0.35577879 </v>
    <v>       0.22222000       0.77778000       0.19748000 </v>
    <v>       0.33333000       0.66667000       0.12250000 </v>
    <v>       0.35685312       0.67755343       0.53289189 </v>
    <v>       0.44152125       0.88707670       0.27405902 </v>
    <v>       0.52265440       0.76507798       0.42459235 </v>
    <v>       0.44444000       0.88889000       0.04751000 </v>
    <v>       0.47784363       0.91796249       0.48300535 </v>
    <v>       0.32639883       0.66018147       0.34902048 </v>
    <v>       0.55556000       0.77778000       0.19748000 </v>
    <v>       0.66667000       0.66667000       0.12250000 </v>
    <v>       0.68964700       0.67085289       0.54165808 </v>
    <v>       0.77542316       0.88848810       0.27985744 </v>
    <v>       0.86984786       0.76753827       0.43257388 </v>
    <v>       0.77778000       0.88889000       0.04751000 </v>
    <v>       0.74196647       0.87144017       0.46525122 </v>
    <v>       0.65568763       0.66578667       0.35711651 </v>
    <v>       0.88889000       0.77778000       0.19748000 </v>
    <v>       0.33671773       0.98547857       0.45133597 </v>
    <v>       0.66065461       0.02306616       0.45729941 </v>
    <v>       0.33749593       0.31493720       0.45026559 </v>
    <v>       0.66170467       0.35829255       0.45548678 </v>
    <v>       0.33439126       0.65252786       0.45187869 </v>
    <v>       0.66521469       0.68891777       0.45733716 </v>
   </varray>
  </structure>
  <varray name="primitive_index" >
   <v type="int" >        1 </v>
   <v type="int" >        2 </v>
   <v type="int" >        3 </v>
   <v type="int" >        4 </v>
   <v type="int" >        5 </v>
   <v type="int" >        6 </v>
   <v type="int" >        7 </v>
   <v type="int" >        8 </v>
   <v type="int" >        9 </v>
   <v type="int" >       10 </v>
   <v type="int" >       11 </v>
   <v type="int" >       12 </v>
   <v type="int" >       13 </v>
   <v type="int" >       14 </v>
   <v type="int" >       15 </v>
   <v type="int" >       16 </v>
   <v type="int" >       17 </v>
   <v type="int" >       18 </v>
   <v type="int" >       19 </v>
   <v type="int" >       20 </v>
   <v type="int" >       21 </v>
   <v type="int" >       22 </v>
   <v type="int" >       23 </v>
   <v type="int" >       24 </v>
   <v type="int" >       25 </v>
   <v type="int" >       26 </v>
   <v type="int" >       27 </v>
   <v type="int" >       28 </v>
   <v type="int" >       29 </v>
   <v type="int" >       30 </v>
   <v type="int" >       31 </v>
   <v type="int" >       32 </v>
   <v type="int" >       33 </v>
   <v type="int" >       34 </v>
   <v type="int" >       35 </v>
   <v type="int" >       36 </v>
   <v type="int" >       37 </v>
   <v type="int" >       38 </v>
   <v type="int" >       39 </v>
   <v type="int" >       40 </v>
   <v type="int" >       41 </v>
   <v type="int" >       42 </v>
   <v type="int" >       43 </v>
   <v type="int" >       44 </v>
   <v type="int" >       45 </v>
   <v type="int" >       46 </v>
   <v type="int" >       47 </v>
   <v type="int" >       48 </v>
   <v type="int" >       49 </v>
   <v type="int" >       50 </v>
   <v type="int" >       51 </v>
   <v type="int" >       52 </v>
   <v type="int" >       53 </v>
   <v type="int" >       54 </v>
   <v type="int" >       55 </v>
   <v type="int" >       56 </v>
   <v type="int" >       57 </v>
   <v type="int" >       58 </v>
   <v type="int" >       59 </v>
   <v type="int" >       60 </v>
   <v type="int" >       61 </v>
   <v type="int" >       62 </v>
   <v type="int" >       63 </v>
   <v type="int" >       64 </v>
   <v type="int" >       65 </v>
   <v type="int" >       66 </v>
   <v type="int" >       67 </v>
   <v type="int" >       68 </v>
   <v type="int" >       69 </v>
   <v type="int" >       70 </v>
   <v type="int" >       71 </v>
   <v type="int" >       72 </v>
   <v type="int" >       73 </v>
   <v type="int" >       74 </v>
   <v type="int" >       75 </v>
   <v type="int" >       76 </v>
   <v type="int" >       77 </v>
   <v type="int" >       78 </v>
   <v type="int" >       79 </v>
   <v type="int" >       80 </v>
   <v type="int" >       81 </v>
   <v type="int" >       82 </v>
   <v type="int" >       83 </v>
   <v type="int" >       84 </v>
   <v type="int" >       85 </v>
   <v type="int" >       86 </v>
   <v type="int" >       87 </v>
   <v type="int" >       88 </v>
   <v type="int" >       89 </v>
   <v type="int" >       90 </v>
   <v type="int" >       91 </v>
   <v type="int" >       92 </v>
   <v type="int" >       93 </v>
   <v type="int" >       94 </v>
   <v type="int" >       95 </v>
   <v type="int" >       96 </v>
   <v type="int" >       97 </v>
   <v type="int" >       98 </v>
   <v type="int" >       99 </v>
  </varray>
 </primitive_cell>
 <kpoints>
  <generation param="Monkhorst-Pack">
   <v type="int" name="divisions">       3        3        1 </v>
   <v name="usershift">      0.00000000       0.00000000       0.00000000 </v>
   <v name="genvec1">      0.33333333      -0.00000000       0.00000000 </v>
   <v name="genvec2">      0.00000000       0.33333333       0.00000000 </v>
   <v name="genvec3">      0.00000000       0.00000000       1.00000000 </v>
   <v name="shift">      0.00000000       0.00000000       0.00000000 </v>
  </generation>
  <varray name="kpointlist" >
   <v>       0.00000000       0.00000000       0.00000000 </v>
   <v>       0.33333333      -0.00000000       0.00000000 </v>
   <v>       0.00000000       0.33333333       0.00000000 </v>
   <v>      -0.33333333       0.33333333       0.00000000 </v>
   <v>       0.33333333       0.33333333       0.00000000 </v>
  </varray>
  <varray name="weights" >
   <v>       0.11111111 </v>
   <v>       0.22222222 </v>
   <v>       0.22222222 </v>
   <v>       0.22222222 </v>
   <v>       0.22222222 </v>
  </varray>
 </kpoints>
 <parameters>
  <separator name="general" >
   <i type="string" name="SYSTEM">unknown system</i>
   <i type="logical" name="LCOMPAT"> F  </i>
  </separator>
  <separator name="electronic" >
   <i type="string" name="PREC">accura</i>
   <i name="ENMAX">    520.00000000</i>
   <i name="ENAUG">    605.39200000</i>
   <i name="EDIFF">      0.00000100</i>
   <i type="int" name="IALGO">    38</i>
   <i type="int" name="IWAVPR">    11</i>
   <i type="int" name="NBANDS">   480</i>
   <i type="int" name="NBANDSLOW">    -1</i>
   <i type="int" name="NBANDSHIGH">    -1</i>
   <i name="NELECT">    738.00000000</i>
   <i type="int" name="TURBO">     0</i>
   <i type="int" name="IRESTART">     0</i>
   <i type="int" name="NREBOOT">     0</i>
   <i type="int" name="NMIN">     0</i>
   <i name="EREF">      0.00000000</i>
   <separator name="electronic smearing" >
    <i type="int" name="ISMEAR">     0</i>
    <i name="SIGMA">      0.05000000</i>
    <i name="KSPACING">      0.50000000</i>
    <i type="logical" name="KGAMMA"> T  </i>
    <i type="logical" name="KBLOWUP"> T  </i>
   </separator>
   <separator name="electronic projectors" >
    <i type="logical" name="LREAL"> F  </i>
    <v name="ROPT">      0.00000000      0.00000000      0.00000000</v>
    <i type="int" name="LMAXPAW">  -100</i>
    <i type="int" name="LMAXMIX">     6</i>
    <i type="logical" name="NLSPLINE"> F  </i>
   </separator>
   <separator name="electronic startup" >
    <i type="int" name="ISTART">     0</i>
    <i type="int" name="ICHARG">     2</i>
    <i type="int" name="INIWAV">     1</i>
   </separator>
   <separator name="electronic spin" >
    <i type="int" name="ISPIN">     2</i>
    <i type="logical" name="LNONCOLLINEAR"> F  </i>
    <v name="MAGMOM">      1.00000000      1.00000000      1.00000000      1.00000000      1.00000000      1.00000000      1.00000000      1.00000000      1.00000000      1.00000000      1.00000000      1.00000000      1.00000000      1.00000000      1.00000000      1.00000000      1.00000000      1.00000000      1.00000000      1.00000000
      1.00000000      0.60000000      0.60000000      0.60000000      0.60000000      0.60000000      0.60000000      0.60000000      0.60000000      0.60000000      0.60000000      0.60000000      0.60000000      0.60000000      0.60000000      0.60000000      0.60000000      0.60000000      0.60000000      0.60000000
      0.60000000      0.60000000      0.60000000      0.60000000      0.60000000      0.60000000      0.60000000      0.60000000      0.60000000      0.60000000      0.60000000      0.60000000      0.60000000      0.60000000      0.60000000      0.60000000      0.60000000      0.60000000      0.60000000      0.60000000
      0.60000000      0.60000000      0.60000000      0.60000000      0.60000000      0.60000000      0.60000000      0.60000000      0.60000000      0.60000000      0.60000000      0.60000000      0.60000000      0.60000000      0.60000000      0.60000000      0.60000000      0.60000000      0.60000000      0.60000000
      0.60000000      0.60000000      0.60000000      0.60000000      0.60000000      0.60000000      0.60000000      0.60000000      0.60000000      0.60000000      0.60000000      0.60000000      0.60000000      0.60000000      0.60000000      0.60000000      0.60000000      0.60000000      0.60000000</v>
    <i name="NUPDOWN">     -1.00000000</i>
    <i type="logical" name="LSORBIT"> F  </i>
    <v name="SAXIS">      0.00000000      0.00000000      1.00000000</v>
    <i type="logical" name="LSPIRAL"> F  </i>
    <v name="QSPIRAL">      0.00000000      0.00000000      0.00000000</v>
    <i type="logical" name="LZEROZ"> F  </i>
   </separator>
   <separator name="electronic exchange-correlation" >
    <i type="logical" name="LASPH"> T  </i>
   </separator>
   <separator name="electronic convergence" >
    <i type="int" name="NELM">    90</i>
    <i type="int" name="NELMDL">     0</i>
    <i type="int" name="NELMIN">     6</i>
    <i name="ENINI">    520.00000000</i>
    <separator name="electronic convergence detail" >
     <i type="logical" name="LDIAG"> T  </i>
     <i type="logical" name="LSUBROT"> F  </i>
     <i name="WEIMIN">      0.00100000</i>
     <i name="EBREAK">      0.00000000</i>
     <i name="DEPER">      0.30000000</i>
     <i type="int" name="NRMM">     4</i>
     <i name="TIME">      0.40000000</i>
    </separator>
   </separator>
   <separator name="electronic mixer" >
    <i name="AMIX">      0.40000000</i>
    <i name="BMIX">      1.00000000</i>
    <i name="AMIN">      0.10000000</i>
    <i name="AMIX_MAG">      1.60000000</i>
    <i name="BMIX_MAG">      1.00000000</i>
    <separator name="electronic mixer details" >
     <i type="int" name="IMIX">     4</i>
     <i type="logical" name="MIXFIRST"> F  </i>
     <i type="int" name="MAXMIX">   -45</i>
     <i name="WC">    100.00000000</i>
     <i type="int" name="INIMIX">     1</i>
     <i type="int" name="MIXPRE">     1</i>
     <i type="int" name="MREMOVE">     5</i>
    </separator>
   </separator>
   <separator name="electronic dipolcorrection" >
    <i type="logical" name="LDIPOL"> F  </i>
    <i type="logical" name="LMONO"> F  </i>
    <i type="int" name="IDIPOL">     0</i>
    <i name="EPSILON">      1.00000000</i>
    <v name="DIPOL">   -100.00000000   -100.00000000   -100.00000000</v>
    <i name="EFIELD">      0.00000000</i>
    <i type="logical" name="LVACPOTAV"> F  </i>
   </separator>
  </separator>
  <separator name="grids" >
   <i type="int" name="NGX">    90</i>
   <i type="int" name="NGY">    90</i>
   <i type="int" name="NGZ">   160</i>
   <i type="int" name="NGXF">   180</i>
   <i type="int" name="NGYF">   180</i>
   <i type="int" name="NGZF">   320</i>
   <i type="logical" name="ADDGRID"> T  </i>
  </separator>
  <separator name="ionic" >
   <i type="int" name="NSW">   300</i>
   <i type="int" name="IBRION">     2</i>
   <i type="int" name="MDALGO">     0</i>
   <i type="int" name="ISIF">     2</i>
   <i name="PSTRESS">      0.00000000</i>
   <i name="EDIFFG">     -0.02000000</i>
   <i type="int" name="NFREE">     1</i>
   <i name="POTIM">      0.50000000</i>
   <i name="SMASS">     -3.00000000</i>
   <i name="SCALEE">      1.00000000</i>
  </separator>
  <separator name="ionic md" >
   <i name="TEBEG">      0.00010000</i>
   <i name="TEEND">      0.00010000</i>
   <i type="int" name="NBLOCK">     1</i>
   <i type="int" name="KBLOCK">   300</i>
   <i type="int" name="NPACO">   256</i>
   <i name="APACO">     10.00000000</i>
  </separator>
  <separator name="symmetry" >
   <i type="int" name="ISYM">     2</i>
   <i name="SYMPREC">      0.00001000</i>
  </separator>
  <separator name="dos" >
   <i type="int" name="LORBIT">     0</i>
   <v name="RWIGS">     -1.00000000     -1.00000000     -1.00000000</v>
   <i type="int" name="NEDOS">   301</i>
   <i name="EMIN">     10.00000000</i>
   <i name="EMAX">    -10.00000000</i>
   <i name="EFERMI">      0.00000000</i>
  </separator>
  <separator name="writing" >
   <i type="int" name="NWRITE">     2</i>
   <i type="logical" name="LWAVE"> F  </i>
   <i type="logical" name="LDOWNSAMPLE"> F  </i>
   <i type="logical" name="LCHARG"> F  </i>
   <i type="logical" name="LPARD"> F  </i>
   <i type="logical" name="LVTOT"> F  </i>
   <i type="logical" name="LVHAR"> F  </i>
   <i type="logical" name="LELF"> F  </i>
   <i type="logical" name="LOPTICS"> F  </i>
   <v name="STM">      0.00000000      0.00000000      0.00000000      0.00000000      0.00000000      0.00000000      0.00000000</v>
  </separator>
  <separator name="performance" >
   <i type="int" name="NPAR">    48</i>
   <i type="int" name="NSIM">     4</i>
   <i type="int" name="NBLK">    -1</i>
   <i type="logical" name="LPLANE"> T  </i>
   <i type="logical" name="LSCALAPACK"> T  </i>
   <i type="logical" name="LSCAAWARE"> T  </i>
   <i type="logical" name="LSCALU"> F  </i>
   <i type="logical" name="LASYNC"> F  </i>
   <i type="logical" name="LORBITALREAL"> F  </i>
  </separator>
  <separator name="miscellaneous" >
   <i type="int" name="IDIOT">     3</i>
   <i type="int" name="PHON_NSTRUCT">    -1</i>
   <i type="logical" name="LMUSIC"> F  </i>
   <v name="POMASS">    140.11500000     16.00000000    192.22000000</v>
   <v name="DARWINR">      0.00000000      0.00000000      0.00000000</v>
   <v name="DARWINV">      1.00000000      1.00000000      1.00000000</v>
   <i type="logical" name="LCORR"> T  </i>
  </separator>
  <i type="logical" name="GGA_COMPAT"> T  </i>
  <i type="logical" name="LBERRY"> F  </i>
  <i type="int" name="ICORELEVEL">     0</i>
  <i type="logical" name="LDAU"> T  </i>
  <v type="int" name="LDAUTYPE">     2</v>
  <v type="int" name="LDAUL">     3</v>
  <v name="LDAUU">      5.00000000</v>
  <v name="LDAUJ">      0.00000000</v>
  <i type="int" name="LDAUPRINT">     0</i>
  <i type="int" name="I_CONSTRAINED_M">     0</i>
  <separator name="electronic exchange-correlation" >
   <i type="string" name="GGA    ">PE</i>
   <i type="string" name="XC_C">1</i>
   <i type="int" name="VOSKOWN">     0</i>
   <i type="logical" name="LHFCALC"> F  </i>
   <i type="string" name="PRECFOCK"></i>
   <i type="logical" name="LSYMGRAD"> F  </i>
   <i type="logical" name="LHFONE"> F  </i>
   <i type="logical" name="LRHFCALC"> F  </i>
   <i type="logical" name="LTHOMAS"> F  </i>
   <i type="logical" name="LMODELHF"> F  </i>
   <i type="logical" name="LFOCKACE"> F  </i>
   <i name="ENCUT4O">     -1.00000000</i>
   <i type="int" name="EXXOEP">     0</i>
   <i type="int" name="FOURORBIT">     0</i>
   <i name="AEXX">      0.00000000</i>
   <i name="HFALPHA">      0.00000000</i>
   <i name="MCALPHA">      0.00000000</i>
   <i name="ALDAX">      1.00000000</i>
   <i name="AGGAX">      1.00000000</i>
   <i name="AMGGAX">      1.00000000</i>
   <i name="ALDAC">      1.00000000</i>
   <i name="AGGAC">      1.00000000</i>
   <i name="AMGGAC">      1.00000000</i>
   <i type="int" name="NKREDX">     1</i>
   <i type="int" name="NKREDY">     1</i>
   <i type="int" name="NKREDZ">     1</i>
   <i type="logical" name="SHIFTRED"> F  </i>
   <i type="logical" name="ODDONLY"> F  </i>
   <i type="logical" name="EVENONLY"> F  </i>
   <i type="int" name="LMAXFOCK">     0</i>
   <i type="int" name="NMAXFOCKAE">     0</i>
   <i type="logical" name="LFOCKAEDFT"> F  </i>
   <i name="HFSCREEN">      0.00000000</i>
   <i name="HFSCREENC">      0.00000000</i>
   <i type="int" name="NBANDSGWLOW">     0</i>
  </separator>
  <separator name="vdW DFT" >
   <i type="logical" name="LUSE_VDW"> F  </i>
   <i type="int" name="IVDW_NL">    -1</i>
   <i type="logical" name="LSPIN_VDW"> F  </i>
   <i name="ZAB_VDW">     -0.84910000</i>
   <i name="GAMMA_VDW">      1.39626340</i>
   <i name="ALPHA_VDW">      0.00000000</i>
   <i name="PARAM1">      0.12340000</i>
   <i name="PARAM2">      1.00000000</i>
   <i name="BPARAM">      6.30000000</i>
   <i name="CPARAM">      0.00930000</i>
  </separator>
  <separator name="model GW" >
   <i type="int" name="MODEL_GW">     0</i>
   <i name="MODEL_EPS0">     14.86082213</i>
   <i name="MODEL_ALPHA">      1.00000000</i>
  </separator>
  <separator name="linear response parameters" >
   <i type="logical" name="LEPSILON"> F  </i>
   <i type="logical" name="LRPA"> F  </i>
   <i type="logical" name="LNABLA"> F  </i>
   <i type="logical" name="LVEL"> F  </i>
   <i name="CSHIFT">      0.10000000</i>
   <i name="OMEGAMAX">     -1.00000000</i>
   <i name="DEG_THRESHOLD">      0.00200000</i>
   <i name="RTIME">     -0.10000000</i>
   <i name="WPLASMAI">      0.00000000</i>
   <v name="DFIELD">      0.00000000      0.00000000      0.00000000</v>
   <v name="WPLASMA">      0.00000000      0.00000000      0.00000000      0.00000000      0.00000000      0.00000000      0.00000000      0.00000000      0.00000000</v>
  </separator>
  <separator name="orbital magnetization" >
   <i type="logical" name="NUCIND"> F  </i>
   <v name="MAGPOS">      0.00000000      0.00000000      0.00000000</v>
   <i type="logical" name="LNICSALL"> T  </i>
   <i type="logical" name="ORBITALMAG"> F  </i>
   <i type="logical" name="LMAGBLOCH"> F  </i>
   <i type="logical" name="LCHIMAG"> F  </i>
   <i type="logical" name="LGAUGE"> T  </i>
   <i type="int" name="MAGATOM">     0</i>
   <v name="MAGDIPOL">      0.00000000      0.00000000      0.00000000</v>
   <v name="AVECCONST">      0.00000000      0.00000000      0.00000000</v>
  </separator>
  <separator name="response functions" >
   <i type="logical" name="LALL_IN_ONE"> F  </i>
   <i type="int" name="IALL_IN_ONE">    -1</i>
   <i type="int" name="NBANDS_WAVE">    -1</i>
   <i type="logical" name="LFINITE_TEMPERATURE"> F  </i>
   <i type="logical" name="LADDER"> F  </i>
   <i type="logical" name="LRPAFORCE"> F  </i>
   <i type="logical" name="LFXC"> F  </i>
   <i type="logical" name="LHARTREE"> T  </i>
   <i type="int" name="IBSE">     0</i>
   <v type="int" name="KPOINT">    -1     0     0     0</v>
   <i type="logical" name="LTCTC"> F  </i>
   <i type="logical" name="LTCTE"> F  </i>
   <i type="logical" name="LTETE"> F  </i>
   <i type="logical" name="LTRIPLET"> F  </i>
   <i type="logical" name="LFXCEPS"> F  </i>
   <i type="logical" name="LFXHEG"> F  </i>
   <i type="int" name="NATURALO">     2</i>
   <i type="logical" name="LHOLEGF"> F  </i>
   <i type="logical" name="L2ORDER"> F  </i>
   <i type="logical" name="LDMP1"> F  </i>
   <i type="logical" name="LMP2LT"> F  </i>
   <i type="logical" name="LSMP2LT"> F  </i>
   <i type="logical" name="LGWLF"> F  </i>
   <i name="ENCUTGW">     -1.60000002</i>
   <i name="ENCUTGWSOFT">     -1.60000002</i>
   <i name="ENCUTLF">     -1.00000000</i>
   <i type="logical" name="ESF_SPLINES"> F  </i>
   <i name="ESF_CONV">      0.01000000</i>
   <i type="int" name="ESF_NINTER">    15</i>
   <i type="int" name="LMAXMP2">    -1</i>
   <i name="SCISSOR">      0.00000000</i>
   <i type="int" name="NOMEGA">     0</i>
   <i type="int" name="NOMEGAR">     0</i>
   <i type="int" name="NBANDSGW">    -1</i>
   <i type="int" name="NBANDSO">    -1</i>
   <i type="int" name="NBANDSV">    -1</i>
   <i type="int" name="NELMGW">     1</i>
   <i type="int" name="NELMHF">     1</i>
   <i type="int" name="DIM">     3</i>
   <i type="int" name="IESPILON">     4</i>
   <i type="int" name="ANTIRES">     0</i>
   <i name="OMEGAMAX">    -30.00000000</i>
   <i name="OMEGAMIN">    -30.00000000</i>
   <i name="OMEGATL">   -200.00000000</i>
   <i type="int" name="OMEGAGRID">     0</i>
   <i name="CSHIFT">     -0.10000000</i>
   <i type="logical" name="LSELFENERGY"> F  </i>
   <i type="logical" name="LSPECTRAL"> F  </i>
   <i type="logical" name="LSPECTRALGW"> F  </i>
   <i type="logical" name="LSINGLES"> F  </i>
   <i type="logical" name="LFERMIGW"> F  </i>
   <i type="logical" name="ODDONLYGW"> F  </i>
   <i type="logical" name="EVENONLYGW"> F  </i>
   <i type="int" name="NKREDLFX">     1</i>
   <i type="int" name="NKREDLFY">     1</i>
   <i type="int" name="NKREDLFZ">     1</i>
   <i type="int" name="MAXMEM">  2800</i>
   <i type="int" name="TELESCOPE">     0</i>
   <i type="int" name="NTAUPAR">    -1</i>
   <i type="int" name="NOMEGAPAR">    -1</i>
   <i name="DAMP_NEWTON">      0.80000001</i>
   <i name="LAMBDA">      1.00000000</i>
  </separator>
  <separator name="External order field" >
   <i name="OFIELD_KAPPA">      0.00000000</i>
   <v name="OFIELD_K">      0.00000000      0.00000000      0.00000000</v>
   <i name="OFIELD_Q6_NEAR">      0.00000000</i>
   <i name="OFIELD_Q6_FAR">      0.00000000</i>
   <i name="OFIELD_A">      0.00000000</i>
  </separator>
  <separator name="optional k-points parameters" >
   <i type="int" name="KPOINTS_OPT_MODE">     1</i>
   <i type="logical" name="LKPOINTS_OPT"> F  </i>
  </separator>
 </parameters>
 <atominfo>
  <atoms>      99 </atoms>
  <types>       3 </types>
  <array name="atoms" >
   <dimension dim="1">ion</dimension>
   <field type="string">element</field>
   <field type="int">atomtype</field>
   <set>
    <rc><c>Ce</c><c>   1</c></rc>
    <rc><c>Ce</c><c>   1</c></rc>
    <rc><c>Ce</c><c>   1</c></rc>
    <rc><c>Ce</c><c>   1</c></rc>
    <rc><c>Ce</c><c>   1</c></rc>
    <rc><c>Ce</c><c>   1</c></rc>
    <rc><c>Ce</c><c>   1</c></rc>
    <rc><c>Ce</c><c>   1</c></rc>
    <rc><c>Ce</c><c>   1</c></rc>
    <rc><c>Ce</c><c>   1</c></rc>
    <rc><c>Ce</c><c>   1</c></rc>
    <rc><c>Ce</c><c>   1</c></rc>
    <rc><c>Ce</c><c>   1</c></rc>
    <rc><c>Ce</c><c>   1</c></rc>
    <rc><c>Ce</c><c>   1</c></rc>
    <rc><c>Ce</c><c>   1</c></rc>
    <rc><c>Ce</c><c>   1</c></rc>
    <rc><c>Ce</c><c>   1</c></rc>
    <rc><c>Ce</c><c>   1</c></rc>
    <rc><c>Ce</c><c>   1</c></rc>
    <rc><c>Ce</c><c>   1</c></rc>
    <rc><c>O </c><c>   2</c></rc>
    <rc><c>O </c><c>   2</c></rc>
    <rc><c>O </c><c>   2</c></rc>
    <rc><c>O </c><c>   2</c></rc>
    <rc><c>O </c><c>   2</c></rc>
    <rc><c>O </c><c>   2</c></rc>
    <rc><c>O </c><c>   2</c></rc>
    <rc><c>O </c><c>   2</c></rc>
    <rc><c>O </c><c>   2</c></rc>
    <rc><c>O </c><c>   2</c></rc>
    <rc><c>O </c><c>   2</c></rc>
    <rc><c>O </c><c>   2</c></rc>
    <rc><c>O </c><c>   2</c></rc>
    <rc><c>O </c><c>   2</c></rc>
    <rc><c>O </c><c>   2</c></rc>
    <rc><c>O </c><c>   2</c></rc>
    <rc><c>O </c><c>   2</c></rc>
    <rc><c>O </c><c>   2</c></rc>
    <rc><c>O </c><c>   2</c></rc>
    <rc><c>O </c><c>   2</c></rc>
    <rc><c>O </c><c>   2</c></rc>
    <rc><c>O </c><c>   2</c></rc>
    <rc><c>O </c><c>   2</c></rc>
    <rc><c>O </c><c>   2</c></rc>
    <rc><c>O </c><c>   2</c></rc>
    <rc><c>O </c><c>   2</c></rc>
    <rc><c>O </c><c>   2</c></rc>
    <rc><c>O </c><c>   2</c></rc>
    <rc><c>O </c><c>   2</c></rc>
    <rc><c>O </c><c>   2</c></rc>
    <rc><c>O </c><c>   2</c></rc>
    <rc><c>O </c><c>   2</c></rc>
    <rc><c>O </c><c>   2</c></rc>
    <rc><c>O </c><c>   2</c></rc>
    <rc><c>O </c><c>   2</c></rc>
    <rc><c>O </c><c>   2</c></rc>
    <rc><c>O </c><c>   2</c></rc>
    <rc><c>O </c><c>   2</c></rc>
    <rc><c>O </c><c>   2</c></rc>
    <rc><c>O </c><c>   2</c></rc>
    <rc><c>O </c><c>   2</c></rc>
    <rc><c>O </c><c>   2</c></rc>
    <rc><c>O </c><c>   2</c></rc>
    <rc><c>O </c><c>   2</c></rc>
    <rc><c>O </c><c>   2</c></rc>
    <rc><c>O </c><c>   2</c></rc>
    <rc><c>O </c><c>   2</c></rc>
    <rc><c>O </c><c>   2</c></rc>
    <rc><c>O </c><c>   2</c></rc>
    <rc><c>O </c><c>   2</c></rc>
    <rc><c>O </c><c>   2</c></rc>
    <rc><c>O </c><c>   2</c></rc>
    <rc><c>O </c><c>   2</c></rc>
    <rc><c>O </c><c>   2</c></rc>
    <rc><c>O </c><c>   2</c></rc>
    <rc><c>O </c><c>   2</c></rc>
    <rc><c>O </c><c>   2</c></rc>
    <rc><c>O </c><c>   2</c></rc>
    <rc><c>O </c><c>   2</c></rc>
    <rc><c>O </c><c>   2</c></rc>
    <rc><c>O </c><c>   2</c></rc>
    <rc><c>O </c><c>   2</c></rc>
    <rc><c>O </c><c>   2</c></rc>
    <rc><c>O </c><c>   2</c></rc>
    <rc><c>O </c><c>   2</c></rc>
    <rc><c>O </c><c>   2</c></rc>
    <rc><c>O </c><c>   2</c></rc>
    <rc><c>O </c><c>   2</c></rc>
    <rc><c>O </c><c>   2</c></rc>
    <rc><c>O </c><c>   2</c></rc>
    <rc><c>O </c><c>   2</c></rc>
    <rc><c>O </c><c>   2</c></rc>
    <rc><c>Ir</c><c>   3</c></rc>
    <rc><c>Ir</c><c>   3</c></rc>
    <rc><c>Ir</c><c>   3</c></rc>
    <rc><c>Ir</c><c>   3</c></rc>
    <rc><c>Ir</c><c>   3</c></rc>
    <rc><c>Ir</c><c>   3</c></rc>
   </set>
  </array>
  <array name="atomtypes" >
   <dimension dim="1">type</dimension>
   <field type="int">atomspertype</field>
   <field type="string">element</field>
   <field>mass</field>
   <field>valence</field>
   <field type="string">pseudopotential</field>
   <set>
    <rc><c>  21</c><c>Ce</c><c>    140.11500000</c><c>     12.00000000</c><c>  PAW_PBE Ce 23Dec2003                  </c></rc>
    <rc><c>  72</c><c>O </c><c>     16.00000000</c><c>      6.00000000</c><c>  PAW_PBE O 08Apr2002                   </c></rc>
    <rc><c>   6</c><c>Ir</c><c>    192.22000000</c><c>      9.00000000</c><c>  PAW_PBE Ir 06Sep2000                  </c></rc>
   </set>
  </array>
 </atominfo>
 <structure name="initialpos" >
  <crystal>
   <varray name="basis" >
    <v>      11.59820000       0.00000000       0.00000000 </v>
    <v>      -5.79910000      10.04433584       0.00000000 </v>
    <v>       0.00000000       0.00000000      21.04820000 </v>
   </varray>
   <i name="volume">   2452.03565189 </i>
   <varray name="rec_basis" >
    <v>       0.08622028       0.04977930       0.00000000 </v>
    <v>       0.00000000       0.09955860       0.00000000 </v>
    <v>       0.00000000       0.00000000       0.04751000 </v>
   </varray>
  </crystal>
  <varray name="positions" >
   <v>       0.00003245       0.99990597       0.47326085 </v>
   <v>       0.21457054       0.10766198       0.31291103 </v>
   <v>       0.11111000       0.22222000       0.15999000 </v>
   <v>       0.55198733       0.11013884       0.31081798 </v>
   <v>       0.44444000       0.22222000       0.15999000 </v>
   <v>       0.88765297       0.11085958       0.31881716 </v>
   <v>       0.77778000       0.22222000       0.15999000 </v>
   <v>       0.00026977       0.33210223       0.47322461 </v>
   <v>       0.21380207       0.43852001       0.31294951 </v>
   <v>       0.11111000       0.55556000       0.15999000 </v>
   <v>       0.55089481       0.44284764       0.31116055 </v>
   <v>       0.44444000       0.55556000       0.15999000 </v>
   <v>       0.88740642       0.44355552       0.31886299 </v>
   <v>       0.77778000       0.55556000       0.15999000 </v>
   <v>       0.99914108       0.66559609       0.47433286 </v>
   <v>       0.21391715       0.77321466       0.31287740 </v>
   <v>       0.11111000       0.88889000       0.15999000 </v>
   <v>       0.55174985       0.77690106       0.31091526 </v>
   <v>       0.44444000       0.88889000       0.15999000 </v>
   <v>       0.88736796       0.77745868       0.31902912 </v>
   <v>       0.77778000       0.88889000       0.15999000 </v>
   <v>       0.00000000       0.00000000       0.12250000 </v>
   <v>       0.99768274       0.99628963       0.56249867 </v>
   <v>       0.10601204       0.21888436       0.27696733 </v>
   <v>       0.27143676       0.12976520       0.43090862 </v>
   <v>       0.11111000       0.22222000       0.04751000 </v>
   <v>       0.14842714       0.24016093       0.45128224 </v>
   <v>       0.00144205       0.00041847       0.35579658 </v>
   <v>       0.22222000       0.11111000       0.19748000 </v>
   <v>       0.33333000       0.00000000       0.12250000 </v>
   <v>       0.35720841       0.01181656       0.53362779 </v>
   <v>       0.44061446       0.22008049       0.27375196 </v>
   <v>       0.52505680       0.09270114       0.42247440 </v>
   <v>       0.44444000       0.22222000       0.04751000 </v>
   <v>       0.47570540       0.24939193       0.48050708 </v>
   <v>       0.32666684       0.99345736       0.34920024 </v>
   <v>       0.55556000       0.11111000       0.19748000 </v>
   <v>       0.66667000       0.00000000       0.12250000 </v>
   <v>       0.69012764       0.99679654       0.53690623 </v>
   <v>       0.77507883       0.22189952       0.27925694 </v>
   <v>       0.86672681       0.09865284       0.43195000 </v>
   <v>       0.77778000       0.22222000       0.04751000 </v>
   <v>       0.74334622       0.20568593       0.46587096 </v>
   <v>       0.65634452       0.99941413       0.35749489 </v>
   <v>       0.88889000       0.11111000       0.19748000 </v>
   <v>       0.00000000       0.33333000       0.12250000 </v>
   <v>       0.99462307       0.32248231       0.56373782 </v>
   <v>       0.10504836       0.55332712       0.27657059 </v>
   <v>       0.26817236       0.46356395       0.43033667 </v>
   <v>       0.11111000       0.55556000       0.04751000 </v>
   <v>       0.14636927       0.57201238       0.45180124 </v>
   <v>       0.00026861       0.33399212       0.35533632 </v>
   <v>       0.22222000       0.44444000       0.19748000 </v>
   <v>       0.33333000       0.33333000       0.12250000 </v>
   <v>       0.35577409       0.34609627       0.53468980 </v>
   <v>       0.44151844       0.55381350       0.27377970 </v>
   <v>       0.52919565       0.42540666       0.42241979 </v>
   <v>       0.44444000       0.55556000       0.04751000 </v>
   <v>       0.48173753       0.58270478       0.47736228 </v>
   <v>       0.32754523       0.32683528       0.34992762 </v>
   <v>       0.55556000       0.44444000       0.19748000 </v>
   <v>       0.66667000       0.33333000       0.12250000 </v>
   <v>       0.68886058       0.33216634       0.53785597 </v>
   <v>       0.77580677       0.55670356       0.27949819 </v>
   <v>       0.86565271       0.43099467       0.43282444 </v>
   <v>       0.77778000       0.55556000       0.04751000 </v>
   <v>       0.74308243       0.54390887       0.46494131 </v>
   <v>       0.65535355       0.33219756       0.35670246 </v>
   <v>       0.88889000       0.44444000       0.19748000 </v>
   <v>       0.00000000       0.66667000       0.12250000 </v>
   <v>       0.99265865       0.65899033       0.56306633 </v>
   <v>       0.10527366       0.88663833       0.27723715 </v>
   <v>       0.27177577       0.79809537       0.42978916 </v>
   <v>       0.11111000       0.88889000       0.04751000 </v>
   <v>       0.14635333       0.90343100       0.45137345 </v>
   <v>       0.00053769       0.66735787       0.35577879 </v>
   <v>       0.22222000       0.77778000       0.19748000 </v>
   <v>       0.33333000       0.66667000       0.12250000 </v>
   <v>       0.35685312       0.67755343       0.53289189 </v>
   <v>       0.44152125       0.88707670       0.27405902 </v>
   <v>       0.52265440       0.76507798       0.42459235 </v>
   <v>       0.44444000       0.88889000       0.04751000 </v>
   <v>       0.47784363       0.91796249       0.48300535 </v>
   <v>       0.32639883       0.66018147       0.34902048 </v>
   <v>       0.55556000       0.77778000       0.19748000 </v>
   <v>       0.66667000       0.66667000       0.12250000 </v>
   <v>       0.68964700       0.67085289       0.54165808 </v>
   <v>       0.77542316       0.88848810       0.27985744 </v>
   <v>       0.86984786       0.76753827       0.43257388 </v>
   <v>       0.77778000       0.88889000       0.04751000 </v>
   <v>       0.74196647       0.87144017       0.46525122 </v>
   <v>       0.65568763       0.66578667       0.35711651 </v>
   <v>       0.88889000       0.77778000       0.19748000 </v>
   <v>       0.33671773       0.98547857       0.45133597 </v>
   <v>       0.66065461       0.02306616       0.45729941 </v>
   <v>       0.33749593       0.31493720       0.45026559 </v>
   <v>       0.66170467       0.35829255       0.45548678 </v>
   <v>       0.33439126       0.65252786       0.45187869 </v>
   <v>       0.66521469       0.68891777       0.45733716 </v>
  </varray>
  <varray name="selective"  type="logical" >
   <v type="logical" >  T  T  T </v>
   <v type="logical" >  T  T  T </v>
   <v type="logical" >  F  F  F </v>
   <v type="logical" >  T  T  T </v>
   <v type="logical" >  F  F  F </v>
   <v type="logical" >  T  T  T </v>
   <v type="logical" >  F  F  F </v>
   <v type="logical" >  T  T  T </v>
   <v type="logical" >  T  T  T </v>
   <v type="logical" >  F  F  F </v>
   <v type="logical" >  T  T  T </v>
   <v type="logical" >  F  F  F </v>
   <v type="logical" >  T  T  T </v>
   <v type="logical" >  F  F  F </v>
   <v type="logical" >  T  T  T </v>
   <v type="logical" >  T  T  T </v>
   <v type="logical" >  F  F  F </v>
   <v type="logical" >  T  T  T </v>
   <v type="logical" >  F  F  F </v>
   <v type="logical" >  T  T  T </v>
   <v type="logical" >  F  F  F </v>
   <v type="logical" >  F  F  F </v>
   <v type="logical" >  T  T  T </v>
   <v type="logical" >  T  T  T </v>
   <v type="logical" >  T  T  T </v>
   <v type="logical" >  F  F  F </v>
   <v type="logical" >  T  T  T </v>
   <v type="logical" >  T  T  T </v>
   <v type="logical" >  F  F  F </v>
   <v type="logical" >  F  F  F </v>
   <v type="logical" >  T  T  T </v>
   <v type="logical" >  T  T  T </v>
   <v type="logical" >  T  T  T </v>
   <v type="logical" >  F  F  F </v>
   <v type="logical" >  T  T  T </v>
   <v type="logical" >  T  T  T </v>
   <v type="logical" >  F  F  F </v>
   <v type="logical" >  F  F  F </v>
   <v type="logical" >  T  T  T </v>
   <v type="logical" >  T  T  T </v>
   <v type="logical" >  T  T  T </v>
   <v type="logical" >  F  F  F </v>
   <v type="logical" >  T  T  T </v>
   <v type="logical" >  T  T  T </v>
   <v type="logical" >  F  F  F </v>
   <v type="logical" >  F  F  F </v>
   <v type="logical" >  T  T  T </v>
   <v type="logical" >  T  T  T </v>
   <v type="logical" >  T  T  T </v>
   <v type="logical" >  F  F  F </v>
   <v type="logical" >  T  T  T </v>
   <v type="logical" >  T  T  T </v>
   <v type="logical" >  F  F  F </v>
   <v type="logical" >  F  F  F </v>
   <v type="logical" >  T  T  T </v>
   <v type="logical" >  T  T  T </v>
   <v type="logical" >  T  T  T </v>
   <v type="logical" >  F  F  F </v>
   <v type="logical" >  T  T  T </v>
   <v type="logical" >  T  T  T </v>
   <v type="logical" >  F  F  F </v>
   <v type="logical" >  F  F  F </v>
   <v type="logical" >  T  T  T </v>
   <v type="logical" >  T  T  T </v>
   <v type="logical" >  T  T  T </v>
   <v type="logical" >  F  F  F </v>
   <v type="logical" >  T  T  T </v>
   <v type="logical" >  T  T  T </v>
   <v type="logical" >  F  F  F </v>
   <v type="logical" >  F  F  F </v>
   <v type="logical" >  T  T  T </v>
   <v type="logical" >  T  T  T </v>
   <v type="logical" >  T  T  T </v>
   <v type="logical" >  F  F  F </v>
   <v type="logical" >  T  T  T </v>
   <v type="logical" >  T  T  T </v>
   <v type="logical" >  F  F  F </v>
   <v type="logical" >  F  F  F </v>
   <v type="logical" >  T  T  T </v>
   <v type="logical" >  T  T  T </v>
   <v type="logical" >  T  T  T </v>
   <v type="logical" >  F  F  F </v>
   <v type="logical" >  T  T  T </v>
   <v type="logical" >  T  T  T </v>
   <v type="logical" >  F  F  F </v>
   <v type="logical" >  F  F  F </v>
   <v type="logical" >  T  T  T </v>
   <v type="logical" >  T  T  T </v>
   <v type="logical" >  T  T  T </v>
   <v type="logical" >  F  F  F </v>
   <v type="logical" >  T  T  T </v>
   <v type="logical" >  T  T  T </v>
   <v type="logical" >  F  F  F </v>
   <v type="logical" >  T  T  T </v>
   <v type="logical" >  T  T  T </v>
   <v type="logical" >  T  T  T </v>
   <v type="logical" >  T  T  T </v>
   <v type="logical" >  T  T  T </v>
   <v type="logical" >  T  T  T </v>
  </varray>
  <nose>
   <v>      -3.00000000       0.00000000       0.00010000       0.00010000 </v>
  </nose>
 </structure>
 <calculation>
  <scstep>
   <time name="dav">   20.93   21.08</time>
   <time name="total">   22.32   22.59</time>
   <energy>
    <i name="alphaZ">   1839.19756306 </i>
    <i name="ewald"> 130109.61626401 </i>
    <i name="hartreedc">-183091.04226941 </i>
    <i name="XCdc">   1990.86629759 </i>
    <i name="pawpsdc">  46122.55799334 </i>
    <i name="pawaedc"> -45467.04419015 </i>
    <i name="eentropy">     -0.02117365 </i>
    <i name="bandstr">   3266.73842014 </i>
    <i name="atom">  56815.39572979 </i>
    <i name="e_fr_energy">  11586.26463471 </i>
    <i name="e_wo_entrp">  11586.28580836 </i>
    <i name="e_0_energy">  11586.27522154 </i>
   </energy>
  </scstep>
  <scstep>
   <time name="dav">   22.99   23.00</time>
   <time name="total">   22.99   23.00</time>
   <energy>
    <i name="e_fr_energy">   3014.93972092 </i>
    <i name="e_wo_entrp">   3015.11274422 </i>
    <i name="e_0_energy">   3015.02623257 </i>
   </energy>
  </scstep>
  <scstep>
   <time name="dav">   27.19   27.20</time>
   <time name="total">   27.19   27.20</time>
   <energy>
    <i name="e_fr_energy">   -390.26495253 </i>
    <i name="e_wo_entrp">   -390.25702185 </i>
    <i name="e_0_energy">   -390.26098719 </i>
   </energy>
  </scstep>
  <scstep>
   <time name="dav">   29.46   29.48</time>
   <time name="total">   29.47   29.48</time>
   <energy>
    <i name="e_fr_energy">   -885.60370482 </i>
    <i name="e_wo_entrp">   -885.60260784 </i>
    <i name="e_0_energy">   -885.60315633 </i>
   </energy>
  </scstep>
  <scstep>
   <time name="dav">   31.92   31.94</time>
   <time name="total">   33.26   33.29</time>
   <energy>
    <i name="e_fr_energy">   -907.50099162 </i>
    <i name="e_wo_entrp">   -907.50060163 </i>
    <i name="e_0_energy">   -907.50079662 </i>
   </energy>
  </scstep>
  <scstep>
   <time name="dav">   33.06   33.08</time>
   <time name="total">   35.70   35.72</time>
   <energy>
    <i name="e_fr_energy">  -1502.90541183 </i>
    <i name="e_wo_entrp">  -1502.75822311 </i>
    <i name="e_0_energy">  -1502.83181747 </i>
   </energy>
  </scstep>
  <scstep>
   <time name="dav">   29.06   29.08</time>
   <time name="total">   31.70   31.71</time>
   <energy>
    <i name="e_fr_energy">  -1924.30759149 </i>
    <i name="e_wo_entrp">  -1924.14180699 </i>
    <i name="e_0_energy">  -1924.22469924 </i>
   </energy>
  </scstep>
  <scstep>
   <time name="dav">   27.42   27.44</time>
   <time name="total">   30.04   30.06</time>
   <energy>
    <i name="e_fr_energy">  -1882.02732195 </i>
    <i name="e_wo_entrp">  -1881.99478280 </i>
    <i name="e_0_energy">  -1882.01105237 </i>
   </energy>
  </scstep>
  <scstep>
   <time name="dav">   29.40   29.41</time>
   <time name="total">   32.02   32.04</time>
   <energy>
    <i name="e_fr_energy">  -1899.09553037 </i>
    <i name="e_wo_entrp">  -1899.06618100 </i>
    <i name="e_0_energy">  -1899.08085569 </i>
   </energy>
  </scstep>
  <scstep>
   <time name="dav">   30.92   30.94</time>
   <time name="total">   33.58   33.60</time>
   <energy>
    <i name="e_fr_energy">   -964.06600426 </i>
    <i name="e_wo_entrp">   -963.93286109 </i>
    <i name="e_0_energy">   -963.99943267 </i>
   </energy>
  </scstep>
  <scstep>
   <time name="dav">   31.92   31.93</time>
   <time name="total">   34.54   34.56</time>
   <energy>
    <i name="e_fr_energy">  -1054.48593848 </i>
    <i name="e_wo_entrp">  -1054.40033255 </i>
    <i name="e_0_energy">  -1054.44313552 </i>
   </energy>
  </scstep>
  <scstep>
   <time name="dav">   31.10   31.12</time>
   <time name="total">   33.76   33.78</time>
   <energy>
    <i name="e_fr_energy">   -673.63362901 </i>
    <i name="e_wo_entrp">   -673.49579472 </i>
    <i name="e_0_energy">   -673.56471187 </i>
   </energy>
  </scstep>
  <scstep>
   <time name="dav">   32.51   32.53</time>
   <time name="total">   35.14   35.16</time>
   <energy>
    <i name="e_fr_energy">   -798.28703820 </i>
    <i name="e_wo_entrp">   -798.21646824 </i>
    <i name="e_0_energy">   -798.25175322 </i>
   </energy>
  </scstep>
  <scstep>
   <time name="dav">   32.07   32.09</time>
   <time name="total">   34.69   34.71</time>
   <energy>
    <i name="e_fr_energy">   -680.62178588 </i>
    <i name="e_wo_entrp">   -680.51705261 </i>
    <i name="e_0_energy">   -680.56941925 </i>
   </energy>
  </scstep>
  <scstep>
   <time name="dav">   33.15   33.17</time>
   <time name="total">   35.76   35.78</time>
   <energy>
    <i name="e_fr_energy">   -667.13478741 </i>
    <i name="e_wo_entrp">   -667.03504354 </i>
    <i name="e_0_energy">   -667.08491547 </i>
   </energy>
  </scstep>
  <scstep>
   <time name="dav">   29.17   29.18</time>
   <time name="total">   31.82   31.83</time>
   <energy>
    <i name="e_fr_energy">   -656.99322045 </i>
    <i name="e_wo_entrp">   -656.88790944 </i>
    <i name="e_0_energy">   -656.94056495 </i>
   </energy>
  </scstep>
  <scstep>
   <time name="dav">   30.46   30.48</time>
   <time name="total">   33.08   33.10</time>
   <energy>
    <i name="e_fr_energy">   -658.68281918 </i>
    <i name="e_wo_entrp">   -658.61516305 </i>
    <i name="e_0_energy">   -658.64899111 </i>
   </energy>
  </scstep>
  <scstep>
   <time name="dav">   33.29   33.30</time>
   <time name="total">   35.94   35.96</time>
   <energy>
    <i name="e_fr_energy">   -662.09667126 </i>
    <i name="e_wo_entrp">   -661.99227227 </i>
    <i name="e_0_energy">   -662.04447176 </i>
   </energy>
  </scstep>
  <scstep>
   <time name="dav">   33.50   33.51</time>
   <time name="total">   36.13   36.15</time>
   <energy>
    <i name="e_fr_energy">   -665.63393631 </i>
    <i name="e_wo_entrp">   -665.60523824 </i>
    <i name="e_0_energy">   -665.61958727 </i>
   </energy>
  </scstep>
  <scstep>
   <time name="dav">   31.32   31.34</time>
   <time name="total">   33.95   33.97</time>
   <energy>
    <i name="e_fr_energy">   -661.47779113 </i>
    <i name="e_wo_entrp">   -661.39451950 </i>
    <i name="e_0_energy">   -661.43615531 </i>
   </energy>
  </scstep>
  <scstep>
   <time name="dav">   32.81   32.82</time>
   <time name="total">   35.44   35.46</time>
   <energy>
    <i name="e_fr_energy">   -660.11683828 </i>
    <i name="e_wo_entrp">   -660.04705498 </i>
    <i name="e_0_energy">   -660.08194663 </i>
   </energy>
  </scstep>
  <scstep>
   <time name="dav">   30.17   30.19</time>
   <time name="total">   32.80   32.82</time>
   <energy>
    <i name="e_fr_energy">   -657.58697450 </i>
    <i name="e_wo_entrp">   -657.53612541 </i>
    <i name="e_0_energy">   -657.56154995 </i>
   </energy>
  </scstep>
  <scstep>
   <time name="dav">   30.56   30.57</time>
   <time name="total">   33.20   33.21</time>
   <energy>
    <i name="e_fr_energy">   -656.60662155 </i>
    <i name="e_wo_entrp">   -656.53313194 </i>
    <i name="e_0_energy">   -656.56987675 </i>
   </energy>
  </scstep>
  <scstep>
   <time name="dav">   30.12   30.13</time>
   <time name="total">   32.77   32.78</time>
   <energy>
    <i name="e_fr_energy">   -656.78426689 </i>
    <i name="e_wo_entrp">   -656.69743244 </i>
    <i name="e_0_energy">   -656.74084967 </i>
   </energy>
  </scstep>
  <scstep>
   <time name="dav">   31.15   31.16</time>
   <time name="total">   33.80   33.82</time>
   <energy>
    <i name="e_fr_energy">   -656.39181841 </i>
    <i name="e_wo_entrp">   -656.31959398 </i>
    <i name="e_0_energy">   -656.35570620 </i>
   </energy>
  </scstep>
  <scstep>
   <time name="dav">   32.07   32.08</time>
   <time name="total">   34.70   34.72</time>
   <energy>
    <i name="e_fr_energy">   -656.57985488 </i>
    <i name="e_wo_entrp">   -656.50515575 </i>
    <i name="e_0_energy">   -656.54250532 </i>
   </energy>
  </scstep>
  <scstep>
   <time name="dav">   29.55   29.57</time>
   <time name="total">   32.21   32.22</time>
   <energy>
    <i name="e_fr_energy">   -656.14219980 </i>
    <i name="e_wo_entrp">   -656.06430501 </i>
    <i name="e_0_energy">   -656.10325240 </i>
   </energy>
  </scstep>
  <scstep>
   <time name="dav">   27.64   27.66</time>
   <time name="total">   30.27   30.28</time>
   <energy>
    <i name="e_fr_energy">   -656.48574647 </i>
    <i name="e_wo_entrp">   -656.40829499 </i>
    <i name="e_0_energy">   -656.44702073 </i>
   </energy>
  </scstep>
  <scstep>
   <time name="dav">   31.80   31.81</time>
   <time name="total">   34.45   34.49</time>
   <energy>
    <i name="e_fr_energy">   -657.03838947 </i>
    <i name="e_wo_entrp">   -656.96067361 </i>
    <i name="e_0_energy">   -656.99953154 </i>
   </energy>
  </scstep>
  <scstep>
   <time name="dav">   29.91   29.93</time>
   <time name="total">   32.56   32.58</time>
   <energy>
    <i name="e_fr_energy">   -657.63349009 </i>
    <i name="e_wo_entrp">   -657.56225051 </i>
    <i name="e_0_energy">   -657.59787030 </i>
   </energy>
  </scstep>
  <scstep>
   <time name="dav">   31.70   31.72</time>
   <time name="total">   34.32   34.34</time>
   <energy>
    <i name="e_fr_energy">   -658.55078383 </i>
    <i name="e_wo_entrp">   -658.47825540 </i>
    <i name="e_0_energy">   -658.51451962 </i>
   </energy>
  </scstep>
  <scstep>
   <time name="dav">   29.01   29.02</time>
   <time name="total">   31.64   31.69</time>
   <energy>
    <i name="e_fr_energy">   -658.94794590 </i>
    <i name="e_wo_entrp">   -658.87114453 </i>
    <i name="e_0_energy">   -658.90954521 </i>
   </energy>
  </scstep>
  <scstep>
   <time name="dav">   30.22   30.24</time>
   <time name="total">   32.86   32.89</time>
   <energy>
    <i name="e_fr_energy">   -659.36060181 </i>
    <i name="e_wo_entrp">   -659.28358156 </i>
    <i name="e_0_energy">   -659.32209168 </i>
   </energy>
  </scstep>
  <scstep>
   <time name="dav">   28.83   28.85</time>
   <time name="total">   31.45   31.46</time>
   <energy>
    <i name="e_fr_energy">   -659.51788315 </i>
    <i name="e_wo_entrp">   -659.44409418 </i>
    <i name="e_0_energy">   -659.48098867 </i>
   </energy>
  </scstep>
  <scstep>
   <time name="dav">   31.61   31.63</time>
   <time name="total">   34.27   34.29</time>
   <energy>
    <i name="e_fr_energy">   -659.51059763 </i>
    <i name="e_wo_entrp">   -659.43729775 </i>
    <i name="e_0_energy">   -659.47394769 </i>
   </energy>
  </scstep>
  <scstep>
   <time name="dav">   33.86   33.88</time>
   <time name="total">   36.50   36.53</time>
   <energy>
    <i name="e_fr_energy">   -659.48434611 </i>
    <i name="e_wo_entrp">   -659.41132263 </i>
    <i name="e_0_energy">   -659.44783437 </i>
   </energy>
  </scstep>
  <scstep>
   <time name="dav">   31.75   31.77</time>
   <time name="total">   34.38   34.40</time>
   <energy>
    <i name="e_fr_energy">   -659.37509719 </i>
    <i name="e_wo_entrp">   -659.30159075 </i>
    <i name="e_0_energy">   -659.33834397 </i>
   </energy>
  </scstep>
  <scstep>
   <time name="dav">   32.52   32.54</time>
   <time name="total">   35.18   35.20</time>
   <energy>
    <i name="e_fr_energy">   -659.28991047 </i>
    <i name="e_wo_entrp">   -659.21462942 </i>
    <i name="e_0_energy">   -659.25226994 </i>
   </energy>
  </scstep>
  <scstep>
   <time name="dav">   31.96   31.98</time>
   <time name="total">   34.60   34.62</time>
   <energy>
    <i name="e_fr_energy">   -659.38114638 </i>
    <i name="e_wo_entrp">   -659.30629097 </i>
    <i name="e_0_energy">   -659.34371867 </i>
   </energy>
  </scstep>
  <scstep>
   <time name="dav">   31.99   32.01</time>
   <time name="total">   34.63   34.65</time>
   <energy>
    <i name="e_fr_energy">   -659.56795552 </i>
    <i name="e_wo_entrp">   -659.49505856 </i>
    <i name="e_0_energy">   -659.53150704 </i>
   </energy>
  </scstep>
  <scstep>
   <time name="dav">   30.33   30.34</time>
   <time name="total">   32.97   32.99</time>
   <energy>
    <i name="e_fr_energy">   -660.01632324 </i>
    <i name="e_wo_entrp">   -659.94490204 </i>
    <i name="e_0_energy">   -659.98061264 </i>
   </energy>
  </scstep>
  <scstep>
   <time name="dav">   31.76   31.77</time>
   <time name="total">   34.38   34.40</time>
   <energy>
    <i name="e_fr_energy">   -660.92459423 </i>
    <i name="e_wo_entrp">   -660.85635118 </i>
    <i name="e_0_energy">   -660.89047271 </i>
   </energy>
  </scstep>
  <scstep>
   <time name="dav">   30.60   30.62</time>
   <time name="total">   33.24   33.26</time>
   <energy>
    <i name="e_fr_energy">   -662.30549058 </i>
    <i name="e_wo_entrp">   -662.23171692 </i>
    <i name="e_0_energy">   -662.26860375 </i>
   </energy>
  </scstep>
  <scstep>
   <time name="dav">   30.38   30.40</time>
   <time name="total">   33.01   33.03</time>
   <energy>
    <i name="e_fr_energy">   -663.27039623 </i>
    <i name="e_wo_entrp">   -663.20011973 </i>
    <i name="e_0_energy">   -663.23525798 </i>
   </energy>
  </scstep>
  <scstep>
   <time name="dav">   31.05   31.07</time>
   <time name="total">   33.68   33.69</time>
   <energy>
    <i name="e_fr_energy">   -664.73527151 </i>
    <i name="e_wo_entrp">   -664.66297320 </i>
    <i name="e_0_energy">   -664.69912236 </i>
   </energy>
  </scstep>
  <scstep>
   <time name="dav">   31.45   31.47</time>
   <time name="total">   34.10   34.11</time>
   <energy>
    <i name="e_fr_energy">   -665.88958256 </i>
    <i name="e_wo_entrp">   -665.81594484 </i>
    <i name="e_0_energy">   -665.85276370 </i>
   </energy>
  </scstep>
  <scstep>
   <time name="dav">   33.04   33.06</time>
   <time name="total">   35.68   35.70</time>
   <energy>
    <i name="e_fr_energy">   -666.54997592 </i>
    <i name="e_wo_entrp">   -666.47799927 </i>
    <i name="e_0_energy">   -666.51398759 </i>
   </energy>
  </scstep>
  <scstep>
   <time name="dav">   30.67   30.69</time>
   <time name="total">   33.33   33.35</time>
   <energy>
    <i name="e_fr_energy">   -667.44936729 </i>
    <i name="e_wo_entrp">   -667.37279388 </i>
    <i name="e_0_energy">   -667.41108059 </i>
   </energy>
  </scstep>
  <scstep>
   <time name="dav">   31.32   31.33</time>
   <time name="total">   33.94   33.96</time>
   <energy>
    <i name="e_fr_energy">   -667.66155576 </i>
    <i name="e_wo_entrp">   -667.58719643 </i>
    <i name="e_0_energy">   -667.62437610 </i>
   </energy>
  </scstep>
  <scstep>
   <time name="dav">   30.44   30.46</time>
   <time name="total">   33.09   33.10</time>
   <energy>
    <i name="e_fr_energy">   -667.87556485 </i>
    <i name="e_wo_entrp">   -667.79996697 </i>
    <i name="e_0_energy">   -667.83776591 </i>
   </energy>
  </scstep>
  <scstep>
   <time name="dav">   31.29   31.31</time>
   <time name="total">   33.95   33.97</time>
   <energy>
    <i name="e_fr_energy">   -732.31347454 </i>
    <i name="e_wo_entrp">   -732.18128396 </i>
    <i name="e_0_energy">   -732.24737925 </i>
   </energy>
  </scstep>
  <scstep>
   <time name="dav">   31.87   31.89</time>
   <time name="total">   34.51   34.53</time>
   <energy>
    <i name="e_fr_energy">   -658.50054433 </i>
    <i name="e_wo_entrp">   -658.38942528 </i>
    <i name="e_0_energy">   -658.44498480 </i>
   </energy>
  </scstep>
  <scstep>
   <time name="dav">   30.22   30.24</time>
   <time name="total">   32.88   32.89</time>
   <energy>
    <i name="e_fr_energy">   -652.95640520 </i>
    <i name="e_wo_entrp">   -652.85130742 </i>
    <i name="e_0_energy">   -652.90385631 </i>
   </energy>
  </scstep>
  <scstep>
   <time name="dav">   32.78   32.80</time>
   <time name="total">   35.42   35.44</time>
   <energy>
    <i name="e_fr_energy">   -652.21554390 </i>
    <i name="e_wo_entrp">   -652.12278534 </i>
    <i name="e_0_energy">   -652.16916462 </i>
   </energy>
  </scstep>
  <scstep>
   <time name="dav">   30.29   30.31</time>
   <time name="total">   32.94   32.95</time>
   <energy>
    <i name="e_fr_energy">   -652.69625235 </i>
    <i name="e_wo_entrp">   -652.60497958 </i>
    <i name="e_0_energy">   -652.65061597 </i>
   </energy>
  </scstep>
  <scstep>
   <time name="dav">   29.38   29.40</time>
   <time name="total">   32.03   32.05</time>
   <energy>
    <i name="e_fr_energy">   -663.60706322 </i>
    <i name="e_wo_entrp">   -663.52059866 </i>
    <i name="e_0_energy">   -663.56383094 </i>
   </energy>
  </scstep>
  <scstep>
   <time name="dav">   29.30   29.31</time>
   <time name="total">   31.97   31.99</time>
   <energy>
    <i name="e_fr_energy">   -655.01078323 </i>
    <i name="e_wo_entrp">   -654.92461794 </i>
    <i name="e_0_energy">   -654.96770058 </i>
   </energy>
  </scstep>
  <scstep>
   <time name="dav">   33.25   33.27</time>
   <time name="total">   35.90   35.92</time>
   <energy>
    <i name="e_fr_energy">   -654.34348631 </i>
    <i name="e_wo_entrp">   -654.26820986 </i>
    <i name="e_0_energy">   -654.30584808 </i>
   </energy>
  </scstep>
  <scstep>
   <time name="dav">   32.79   32.80</time>
   <time name="total">   35.42   35.44</time>
   <energy>
    <i name="e_fr_energy">   -660.65150507 </i>
    <i name="e_wo_entrp">   -660.59089703 </i>
    <i name="e_0_energy">   -660.62120105 </i>
   </energy>
  </scstep>
  <scstep>
   <time name="dav">   29.86   29.88</time>
   <time name="total">   32.52   32.54</time>
   <energy>
    <i name="e_fr_energy">   -661.97905779 </i>
    <i name="e_wo_entrp">   -661.90532908 </i>
    <i name="e_0_energy">   -661.94219343 </i>
   </energy>
  </scstep>
  <scstep>
   <time name="dav">   28.83   28.84</time>
   <time name="total">   31.47   31.49</time>
   <energy>
    <i name="e_fr_energy">   -660.47001524 </i>
    <i name="e_wo_entrp">   -660.39698401 </i>
    <i name="e_0_energy">   -660.43349962 </i>
   </energy>
  </scstep>
  <scstep>
   <time name="dav">   30.45   30.47</time>
   <time name="total">   33.12   33.14</time>
   <energy>
    <i name="e_fr_energy">   -661.18124649 </i>
    <i name="e_wo_entrp">   -661.10745843 </i>
    <i name="e_0_energy">   -661.14435246 </i>
   </energy>
  </scstep>
  <scstep>
   <time name="dav">   29.48   29.50</time>
   <time name="total">   32.13   32.15</time>
   <energy>
    <i name="e_fr_energy">   -664.63524931 </i>
    <i name="e_wo_entrp">   -664.53474193 </i>
    <i name="e_0_energy">   -664.58499562 </i>
   </energy>
  </scstep>
  <scstep>
   <time name="dav">   30.02   30.03</time>
   <time name="total">   32.67   32.69</time>
   <energy>
    <i name="e_fr_energy">   -664.25535127 </i>
    <i name="e_wo_entrp">   -664.17846886 </i>
    <i name="e_0_energy">   -664.21691006 </i>
   </energy>
  </scstep>
  <scstep>
   <time name="dav">   30.85   30.87</time>
   <time name="total">   33.52   33.54</time>
   <energy>
    <i name="e_fr_energy">   -664.30524294 </i>
    <i name="e_wo_entrp">   -664.23169131 </i>
    <i name="e_0_energy">   -664.26846712 </i>
   </energy>
  </scstep>
  <scstep>
   <time name="dav">   29.96   29.98</time>
   <time name="total">   32.63   32.64</time>
   <energy>
    <i name="e_fr_energy">   -672.92516142 </i>
    <i name="e_wo_entrp">   -672.84493511 </i>
    <i name="e_0_energy">   -672.88504827 </i>
   </energy>
  </scstep>
  <scstep>
   <time name="dav">   31.93   31.95</time>
   <time name="total">   34.59   34.61</time>
   <energy>
    <i name="e_fr_energy">   -676.99622872 </i>
    <i name="e_wo_entrp">   -676.89740052 </i>
    <i name="e_0_energy">   -676.94681462 </i>
   </energy>
  </scstep>
  <scstep>
   <time name="dav">   29.89   29.91</time>
   <time name="total">   32.56   32.58</time>
   <energy>
    <i name="e_fr_energy">   -678.84992674 </i>
    <i name="e_wo_entrp">   -678.73989431 </i>
    <i name="e_0_energy">   -678.79491052 </i>
   </energy>
  </scstep>
  <scstep>
   <time name="dav">   32.95   32.97</time>
   <time name="total">   35.58   35.60</time>
   <energy>
    <i name="e_fr_energy">   -683.98943916 </i>
    <i name="e_wo_entrp">   -683.90368222 </i>
    <i name="e_0_energy">   -683.94656069 </i>
   </energy>
  </scstep>
  <scstep>
   <time name="dav">   27.93   27.94</time>
   <time name="total">   30.60   30.61</time>
   <energy>
    <i name="e_fr_energy">   -683.72023236 </i>
    <i name="e_wo_entrp">   -683.63707850 </i>
    <i name="e_0_energy">   -683.67865543 </i>
   </energy>
  </scstep>
  <scstep>
   <time name="dav">   29.23   29.25</time>
   <time name="total">   31.86   31.88</time>
   <energy>
    <i name="e_fr_energy">   -677.06064301 </i>
    <i name="e_wo_entrp">   -676.96595264 </i>
    <i name="e_0_energy">   -677.01329783 </i>
   </energy>
  </scstep>
  <scstep>
   <time name="dav">   28.56   28.58</time>
   <time name="total">   31.22   31.24</time>
   <energy>
    <i name="e_fr_energy">   -676.42884967 </i>
    <i name="e_wo_entrp">   -676.33591082 </i>
    <i name="e_0_energy">   -676.38238025 </i>
   </energy>
  </scstep>
  <scstep>
   <time name="dav">   30.59   30.61</time>
   <time name="total">   33.23   33.25</time>
   <energy>
    <i name="e_fr_energy">   -676.42832548 </i>
    <i name="e_wo_entrp">   -676.33152176 </i>
    <i name="e_0_energy">   -676.37992362 </i>
   </energy>
  </scstep>
  <scstep>
   <time name="dav">   32.09   32.11</time>
   <time name="total">   34.75   34.77</time>
   <energy>
    <i name="e_fr_energy">   -675.79246577 </i>
    <i name="e_wo_entrp">   -675.70402796 </i>
    <i name="e_0_energy">   -675.74824686 </i>
   </energy>
  </scstep>
  <scstep>
   <time name="dav">   31.76   31.78</time>
   <time name="total">   34.41   34.43</time>
   <energy>
    <i name="e_fr_energy">   -677.52084162 </i>
    <i name="e_wo_entrp">   -677.43547797 </i>
    <i name="e_0_energy">   -677.47815980 </i>
   </energy>
  </scstep>
  <scstep>
   <time name="dav">   30.71   30.73</time>
   <time name="total">   33.41   33.43</time>
   <energy>
    <i name="e_fr_energy">   -679.04568797 </i>
    <i name="e_wo_entrp">   -678.96890633 </i>
    <i name="e_0_energy">   -679.00729715 </i>
   </energy>
  </scstep>
  <scstep>
   <time name="dav">   28.59   28.61</time>
   <time name="total">   31.24   31.26</time>
   <energy>
    <i name="e_fr_energy">   -679.55583648 </i>
    <i name="e_wo_entrp">   -679.47470311 </i>
    <i name="e_0_energy">   -679.51526979 </i>
   </energy>
  </scstep>
  <scstep>
   <time name="dav">   34.30   34.32</time>
   <time name="total">   36.95   36.97</time>
   <energy>
    <i name="e_fr_energy">   -680.02182456 </i>
    <i name="e_wo_entrp">   -679.94062824 </i>
    <i name="e_0_energy">   -679.98122640 </i>
   </energy>
  </scstep>
  <scstep>
   <time name="dav">   30.77   30.79</time>
   <time name="total">   33.43   33.45</time>
   <energy>
    <i name="e_fr_energy">   -680.82227845 </i>
    <i name="e_wo_entrp">   -680.73940887 </i>
    <i name="e_0_energy">   -680.78084366 </i>
   </energy>
  </scstep>
  <scstep>
   <time name="dav">   28.70   28.71</time>
   <time name="total">   31.33   31.35</time>
   <energy>
    <i name="e_fr_energy">   -680.21468598 </i>
    <i name="e_wo_entrp">   -680.13582158 </i>
    <i name="e_0_energy">   -680.17525378 </i>
   </energy>
  </scstep>
  <scstep>
   <time name="dav">   26.14   26.15</time>
   <time name="total">   28.79   28.80</time>
   <energy>
    <i name="e_fr_energy">   -672.31799268 </i>
    <i name="e_wo_entrp">   -672.22495495 </i>
    <i name="e_0_energy">   -672.27147382 </i>
   </energy>
  </scstep>
  <scstep>
   <time name="dav">   29.44   29.46</time>
   <time name="total">   32.10   32.12</time>
   <energy>
    <i name="e_fr_energy">   -671.96792253 </i>
    <i name="e_wo_entrp">   -671.88890502 </i>
    <i name="e_0_energy">   -671.92841378 </i>
   </energy>
  </scstep>
  <scstep>
   <time name="dav">   31.15   31.17</time>
   <time name="total">   33.85   33.87</time>
   <energy>
    <i name="e_fr_energy">   -668.47722399 </i>
    <i name="e_wo_entrp">   -668.38998007 </i>
    <i name="e_0_energy">   -668.43360203 </i>
   </energy>
  </scstep>
  <scstep>
   <time name="dav">   29.11   29.12</time>
   <time name="total">   31.75   31.77</time>
   <energy>
    <i name="e_fr_energy">   -668.48639816 </i>
    <i name="e_wo_entrp">   -668.40262665 </i>
    <i name="e_0_energy">   -668.44451240 </i>
   </energy>
  </scstep>
  <scstep>
   <time name="dav">   32.38   32.40</time>
   <time name="total">   35.04   35.06</time>
   <energy>
    <i name="e_fr_energy">   -667.14009305 </i>
    <i name="e_wo_entrp">   -667.05487608 </i>
    <i name="e_0_energy">   -667.09748456 </i>
   </energy>
  </scstep>
  <scstep>
   <time name="dav">   27.90   27.92</time>
   <time name="total">   30.53   30.55</time>
   <energy>
    <i name="e_fr_energy">   -660.64006727 </i>
    <i name="e_wo_entrp">   -660.55723072 </i>
    <i name="e_0_energy">   -660.59864899 </i>
   </energy>
  </scstep>
  <scstep>
   <time name="dav">   31.05   31.07</time>
   <time name="total">   33.67   33.69</time>
   <energy>
    <i name="e_fr_energy">   -657.39904456 </i>
    <i name="e_wo_entrp">   -657.31274984 </i>
    <i name="e_0_energy">   -657.35589720 </i>
   </energy>
  </scstep>
  <scstep>
   <time name="dav">   32.09   32.11</time>
   <time name="total">   34.74   34.76</time>
   <energy>
    <i name="e_fr_energy">   -657.47749789 </i>
    <i name="e_wo_entrp">   -657.41598195 </i>
    <i name="e_0_energy">   -657.44673992 </i>
   </energy>
  </scstep>
  <scstep>
   <time name="dav">   31.03   31.05</time>
   <time name="total">   33.71   33.73</time>
   <energy>
    <i name="e_fr_energy">   -658.57421818 </i>
    <i name="e_wo_entrp">   -658.52691320 </i>
    <i name="e_0_energy">   -658.55056569 </i>
   </energy>
  </scstep>
  <scstep>
   <time name="dav">   30.40   30.41</time>
   <time name="total">   31.70   31.71</time>
   <energy>
    <i name="alphaZ">   1839.19756306 </i>
    <i name="ewald"> 130109.61626401 </i>
    <i name="hartreedc">-184118.29541834 </i>
    <i name="XCdc">   2070.89829201 </i>
    <i name="pawpsdc">  56205.65915398 </i>
    <i name="pawaedc"> -55498.61117712 </i>
    <i name="eentropy">     -0.05022841 </i>
    <i name="bandstr">  -8080.84673886 </i>
    <i name="atom">  56815.39572979 </i>
    <i name="e_fr_energy">   -657.03655988 </i>
    <i name="e_wo_entrp">   -656.98633147 </i>
    <i name="e_0_energy">   -657.01144567 </i>
   </energy>
  </scstep>
  <structure>
   <crystal>
    <varray name="basis" >
     <v>      11.59820000       0.00000000       0.00000000 </v>
     <v>      -5.79910000      10.04433584       0.00000000 </v>
     <v>       0.00000000       0.00000000      21.04820000 </v>
    </varray>
    <i name="volume">   2452.03565189 </i>
    <varray name="rec_basis" >
     <v>       0.08622028       0.04977930       0.00000000 </v>
     <v>       0.00000000       0.09955860       0.00000000 </v>
     <v>       0.00000000       0.00000000       0.04751000 </v>
    </varray>
   </crystal>
   <varray name="positions" >
    <v>       0.00003245       0.99990597       0.47326085 </v>
    <v>       0.21457054       0.10766198       0.31291103 </v>
    <v>       0.11111000       0.22222000       0.15999000 </v>
    <v>       0.55198733       0.11013884       0.31081798 </v>
    <v>       0.44444000       0.22222000       0.15999000 </v>
    <v>       0.88765297       0.11085958       0.31881716 </v>
    <v>       0.77778000       0.22222000       0.15999000 </v>
    <v>       0.00026977       0.33210223       0.47322461 </v>
    <v>       0.21380207       0.43852001       0.31294951 </v>
    <v>       0.11111000       0.55556000       0.15999000 </v>
    <v>       0.55089481       0.44284764       0.31116055 </v>
    <v>       0.44444000       0.55556000       0.15999000 </v>
    <v>       0.88740642       0.44355552       0.31886299 </v>
    <v>       0.77778000       0.55556000       0.15999000 </v>
    <v>       0.99914108       0.66559609       0.47433286 </v>
    <v>       0.21391715       0.77321466       0.31287740 </v>
    <v>       0.11111000       0.88889000       0.15999000 </v>
    <v>       0.55174985       0.77690106       0.31091526 </v>
    <v>       0.44444000       0.88889000       0.15999000 </v>
    <v>       0.88736796       0.77745868       0.31902912 </v>
    <v>       0.77778000       0.88889000       0.15999000 </v>
    <v>       0.00000000       0.00000000       0.12250000 </v>
    <v>       0.99768274       0.99628963       0.56249867 </v>
    <v>       0.10601204       0.21888436       0.27696733 </v>
    <v>       0.27143676       0.12976520       0.43090862 </v>
    <v>       0.11111000       0.22222000       0.04751000 </v>
    <v>       0.14842714       0.24016093       0.45128224 </v>
    <v>       0.00144205       0.00041847       0.35579658 </v>
    <v>       0.22222000       0.11111000       0.19748000 </v>
    <v>       0.33333000       0.00000000       0.12250000 </v>
    <v>       0.35720841       0.01181656       0.53362779 </v>
    <v>       0.44061446       0.22008049       0.27375196 </v>
    <v>       0.52505680       0.09270114       0.42247440 </v>
    <v>       0.44444000       0.22222000       0.04751000 </v>
    <v>       0.47570540       0.24939193       0.48050708 </v>
    <v>       0.32666684       0.99345736       0.34920024 </v>
    <v>       0.55556000       0.11111000       0.19748000 </v>
    <v>       0.66667000       0.00000000       0.12250000 </v>
    <v>       0.69012764       0.99679654       0.53690623 </v>
    <v>       0.77507883       0.22189952       0.27925694 </v>
    <v>       0.86672681       0.09865284       0.43195000 </v>
    <v>       0.77778000       0.22222000       0.04751000 </v>
    <v>       0.74334622       0.20568593       0.46587096 </v>
    <v>       0.65634452       0.99941413       0.35749489 </v>
    <v>       0.88889000       0.11111000       0.19748000 </v>
    <v>       0.00000000       0.33333000       0.12250000 </v>
    <v>       0.99462307       0.32248231       0.56373782 </v>
    <v>       0.10504836       0.55332712       0.27657059 </v>
    <v>       0.26817236       0.46356395       0.43033667 </v>
    <v>       0.11111000       0.55556000       0.04751000 </v>
    <v>       0.14636927       0.57201238       0.45180124 </v>
    <v>       0.00026861       0.33399212       0.35533632 </v>
    <v>       0.22222000       0.44444000       0.19748000 </v>
    <v>       0.33333000       0.33333000       0.12250000 </v>
    <v>       0.35577409       0.34609627       0.53468980 </v>
    <v>       0.44151844       0.55381350       0.27377970 </v>
    <v>       0.52919565       0.42540666       0.42241979 </v>
    <v>       0.44444000       0.55556000       0.04751000 </v>
    <v>       0.48173753       0.58270478       0.47736228 </v>
    <v>       0.32754523       0.32683528       0.34992762 </v>
    <v>       0.55556000       0.44444000       0.19748000 </v>
    <v>       0.66667000       0.33333000       0.12250000 </v>
    <v>       0.68886058       0.33216634       0.53785597 </v>
    <v>       0.77580677       0.55670356       0.27949819 </v>
    <v>       0.86565271       0.43099467       0.43282444 </v>
    <v>       0.77778000       0.55556000       0.04751000 </v>
    <v>       0.74308243       0.54390887       0.46494131 </v>
    <v>       0.65535355       0.33219756       0.35670246 </v>
    <v>       0.88889000       0.44444000       0.19748000 </v>
    <v>       0.00000000       0.66667000       0.12250000 </v>
    <v>       0.99265865       0.65899033       0.56306633 </v>
    <v>       0.10527366       0.88663833       0.27723715 </v>
    <v>       0.27177577       0.79809537       0.42978916 </v>
    <v>       0.11111000       0.88889000       0.04751000 </v>
    <v>       0.14635333       0.90343100       0.45137345 </v>
    <v>       0.00053769       0.66735787       0.35577879 </v>
    <v>       0.22222000       0.77778000       0.19748000 </v>
    <v>       0.33333000       0.66667000       0.12250000 </v>
    <v>       0.35685312       0.67755343       0.53289189 </v>
    <v>       0.44152125       0.88707670       0.27405902 </v>
    <v>       0.52265440       0.76507798       0.42459235 </v>
    <v>       0.44444000       0.88889000       0.04751000 </v>
    <v>       0.47784363       0.91796249       0.48300535 </v>
    <v>       0.32639883       0.66018147       0.34902048 </v>
    <v>       0.55556000       0.77778000       0.19748000 </v>
    <v>       0.66667000       0.66667000       0.12250000 </v>
    <v>       0.68964700       0.67085289       0.54165808 </v>
    <v>       0.77542316       0.88848810       0.27985744 </v>
    <v>       0.86984786       0.76753827       0.43257388 </v>
    <v>       0.77778000       0.88889000       0.04751000 </v>
    <v>       0.74196647       0.87144017       0.46525122 </v>
    <v>       0.65568763       0.66578667       0.35711651 </v>
    <v>       0.88889000       0.77778000       0.19748000 </v>
    <v>       0.33671773       0.98547857       0.45133597 </v>
    <v>       0.66065461       0.02306616       0.45729941 </v>
    <v>       0.33749593       0.31493720       0.45026559 </v>
    <v>       0.66170467       0.35829255       0.45548678 </v>
    <v>       0.33439126       0.65252786       0.45187869 </v>
    <v>       0.66521469       0.68891777       0.45733716 </v>
   </varray>
  </structure>
  <varray name="forces" >
   <v>      -0.92116709       0.31158222      -3.68536138 </v>
   <v>       0.28372121      -0.70378883       3.36508943 </v>
   <v>       0.15923940       5.83133205       1.08604613 </v>
   <v>       0.97615251      -0.27957603       2.65263754 </v>
   <v>       1.81188695       3.88342052      -0.89771528 </v>
   <v>      -1.87332611      -1.04774426       3.60795492 </v>
   <v>      -1.88369879       3.93686474      -0.16412639 </v>
   <v>      -0.14320226      -0.46922070      -2.36602267 </v>
   <v>      -0.33099718       0.28527790      -0.69897156 </v>
   <v>      -0.21810000       0.18559719       0.63041907 </v>
   <v>       0.20267101      -0.07021259      -1.24095964 </v>
   <v>      -0.13875427      -1.82594124       0.05209304 </v>
   <v>       0.04979768      -0.92916590      -0.66270513 </v>
   <v>       0.33710792       0.07575371       0.52893773 </v>
   <v>      -0.35536500      -0.37579174      -0.60993927 </v>
   <v>       0.83285578       0.64167965      -0.55277573 </v>
   <v>       0.92351173      -5.67738625      -0.63789078 </v>
   <v>      -0.63406002       1.15924082       2.59397484 </v>
   <v>      -1.55266158      -2.04844910       0.85220495 </v>
   <v>      -0.63952553       0.37818510      -0.00038843 </v>
   <v>       0.69145912      -4.42452870      -0.18160025 </v>
   <v>      -0.12887078       0.40173073      -0.65669914 </v>
   <v>       0.09413147      -0.14810389       3.05617629 </v>
   <v>      -0.32824434      -0.22046580      -0.55079210 </v>
   <v>       0.11549873      -0.61317705      -0.11154404 </v>
   <v>       0.04488675      -0.11157942      -2.64548677 </v>
   <v>      -0.20479253      -0.13439839       0.04546362 </v>
[...]
   <energy>
    <i name="e_fr_energy">   -673.39752985 </i>
    <i name="e_wo_entrp">   -673.36679450 </i>
    <i name="e_0_energy">   -673.38216217 </i>
   </energy>
  </scstep>
  <scstep>
   <time name="dav">   30.01   30.03</time>
   <time name="total">   32.55   32.56</time>
   <energy>
    <i name="e_fr_energy">   -673.39746213 </i>
    <i name="e_wo_entrp">   -673.36648557 </i>
    <i name="e_0_energy">   -673.38197385 </i>
   </energy>
  </scstep>
  <scstep>
   <time name="dav">   30.30   30.32</time>
   <time name="total">   32.84   32.86</time>
   <energy>
    <i name="e_fr_energy">   -673.39750552 </i>
    <i name="e_wo_entrp">   -673.36642789 </i>
    <i name="e_0_energy">   -673.38196671 </i>
   </energy>
  </scstep>
  <scstep>
   <time name="dav">   31.42   31.44</time>
   <time name="total">   33.97   34.00</time>
   <energy>
    <i name="e_fr_energy">   -673.39753220 </i>
    <i name="e_wo_entrp">   -673.36636088 </i>
    <i name="e_0_energy">   -673.38194654 </i>
   </energy>
  </scstep>
  <scstep>
   <time name="dav">   28.07   28.09</time>
   <time name="total">   30.63   30.65</time>
   <energy>
    <i name="e_fr_energy">   -673.39755801 </i>
    <i name="e_wo_entrp">   -673.36643108 </i>
    <i name="e_0_energy">   -673.38199455 </i>
   </energy>
  </scstep>
  <scstep>
   <time name="dav">   25.65   25.66</time>
   <time name="total">   28.20   28.21</time>
   <energy>
    <i name="e_fr_energy">   -673.39756763 </i>
    <i name="e_wo_entrp">   -673.36649085 </i>
    <i name="e_0_energy">   -673.38202924 </i>
   </energy>
  </scstep>
  <scstep>
   <time name="dav">   20.65   20.66</time>
   <time name="total">   23.20   23.21</time>
   <energy>
    <i name="e_fr_energy">   -673.39758266 </i>
    <i name="e_wo_entrp">   -673.36645126 </i>
    <i name="e_0_energy">   -673.38201696 </i>
   </energy>
  </scstep>
  <scstep>
   <time name="dav">   17.67   17.68</time>
   <time name="total">   20.25   20.26</time>
   <energy>
    <i name="e_fr_energy">   -673.39759513 </i>
    <i name="e_wo_entrp">   -673.36646610 </i>
    <i name="e_0_energy">   -673.38203062 </i>
   </energy>
  </scstep>
  <scstep>
   <time name="dav">   17.03   17.04</time>
   <time name="total">   19.57   19.58</time>
   <energy>
    <i name="e_fr_energy">   -673.39760790 </i>
    <i name="e_wo_entrp">   -673.36649229 </i>
    <i name="e_0_energy">   -673.38205010 </i>
   </energy>
  </scstep>
  <scstep>
   <time name="dav">   16.94   16.95</time>
   <time name="total">   19.49   19.50</time>
   <energy>
    <i name="e_fr_energy">   -673.39762210 </i>
    <i name="e_wo_entrp">   -673.36650236 </i>
    <i name="e_0_energy">   -673.38206223 </i>
   </energy>
  </scstep>
  <scstep>
   <time name="dav">   17.43   17.44</time>
   <time name="total">   19.96   19.97</time>
   <energy>
    <i name="e_fr_energy">   -673.39763350 </i>
    <i name="e_wo_entrp">   -673.36651292 </i>
    <i name="e_0_energy">   -673.38207321 </i>
   </energy>
  </scstep>
  <scstep>
   <time name="dav">   16.78   16.79</time>
   <time name="total">   19.31   19.32</time>
   <energy>
    <i name="e_fr_energy">   -673.39764163 </i>
    <i name="e_wo_entrp">   -673.36652025 </i>
    <i name="e_0_energy">   -673.38208094 </i>
   </energy>
  </scstep>
  <scstep>
   <time name="dav">   16.48   16.48</time>
   <time name="total">   19.06   19.07</time>
   <energy>
    <i name="e_fr_energy">   -673.39764744 </i>
    <i name="e_wo_entrp">   -673.36652365 </i>
    <i name="e_0_energy">   -673.38208554 </i>
   </energy>
  </scstep>
  <scstep>
   <time name="dav">   17.40   17.41</time>
   <time name="total">   19.95   19.96</time>
   <energy>
    <i name="e_fr_energy">   -673.39765282 </i>
    <i name="e_wo_entrp">   -673.36653429 </i>
    <i name="e_0_energy">   -673.38209355 </i>
   </energy>
  </scstep>
  <scstep>
   <time name="dav">   17.63   17.64</time>
   <time name="total">   20.16   20.18</time>
   <energy>
    <i name="e_fr_energy">   -673.39765708 </i>
    <i name="e_wo_entrp">   -673.36653889 </i>
    <i name="e_0_energy">   -673.38209799 </i>
   </energy>
  </scstep>
  <scstep>
   <time name="dav">   16.25   16.26</time>
   <time name="total">   18.81   18.82</time>
   <energy>
    <i name="e_fr_energy">   -673.39765851 </i>
    <i name="e_wo_entrp">   -673.36654010 </i>
    <i name="e_0_energy">   -673.38209930 </i>
   </energy>
  </scstep>
  <scstep>
   <time name="dav">   16.48   16.49</time>
   <time name="total">   17.77   17.78</time>
   <energy>
    <i name="alphaZ">   1839.19756306 </i>
    <i name="ewald"> 129822.53897353 </i>
    <i name="hartreedc">-183723.13035246 </i>
    <i name="XCdc">   2053.18494964 </i>
    <i name="pawpsdc">  57482.08126671 </i>
    <i name="pawaedc"> -56804.75118706 </i>
    <i name="eentropy">     -0.03112062 </i>
    <i name="bandstr">  -8157.88348176 </i>
    <i name="atom">  56815.39572979 </i>
    <i name="e_fr_energy">   -673.39765917 </i>
    <i name="e_wo_entrp">   -673.36653855 </i>
    <i name="e_0_energy">   -673.38209886 </i>
   </energy>
  </scstep>
  <structure>
   <crystal>
    <varray name="basis" >
     <v>      11.59820000       0.00000000       0.00000000 </v>
     <v>      -5.79910000      10.04433584       0.00000000 </v>
     <v>       0.00000000       0.00000000      21.04820000 </v>
    </varray>
    <i name="volume">   2452.03565189 </i>
    <varray name="rec_basis" >
     <v>       0.08622028       0.04977930       0.00000000 </v>
     <v>       0.00000000       0.09955860       0.00000000 </v>
     <v>       0.00000000       0.00000000       0.04751000 </v>
    </varray>
   </crystal>
   <varray name="positions" >
    <v>       0.02456849       0.02240578       0.46823019 </v>
    <v>       0.21869147       0.10861458       0.30864281 </v>
    <v>       0.11111000       0.22222000       0.15999000 </v>
    <v>       0.55633446       0.11176217       0.31694028 </v>
    <v>       0.44444000       0.22222000       0.15999000 </v>
    <v>       0.89366581       0.11376506       0.31453295 </v>
    <v>       0.77778000       0.22222000       0.15999000 </v>
    <v>       0.99581004       0.33051242       0.47759145 </v>
    <v>       0.21865478       0.44276694       0.31185831 </v>
    <v>       0.11111000       0.55556000       0.15999000 </v>
    <v>       0.55796588       0.45041159       0.31332432 </v>
    <v>       0.44444000       0.55556000       0.15999000 </v>
    <v>       0.89328749       0.44650168       0.31223803 </v>
    <v>       0.77778000       0.55556000       0.15999000 </v>
    <v>       0.02137983       0.67202564       0.46448283 </v>
    <v>       0.22090167       0.77773773       0.30852056 </v>
    <v>       0.11111000       0.88889000       0.15999000 </v>
    <v>       0.55754822       0.77485487       0.31380690 </v>
    <v>       0.44444000       0.88889000       0.15999000 </v>
    <v>       0.88735852       0.77819741       0.31186636 </v>
    <v>       0.77778000       0.88889000       0.15999000 </v>
    <v>       0.00000000       0.00000000       0.12250000 </v>
    <v>       0.01523683       0.96118318       0.55303376 </v>
    <v>       0.10857482       0.21918668       0.27267767 </v>
    <v>       0.27417124       0.14087014       0.43338975 </v>
    <v>       0.11111000       0.22222000       0.04751000 </v>
    <v>       0.14679143       0.26045093       0.42651295 </v>
    <v>       0.00454564       0.00008336       0.34908210 </v>
    <v>       0.22222000       0.11111000       0.19748000 </v>
    <v>       0.33333000       0.00000000       0.12250000 </v>
    <v>       0.31464171       0.99590629       0.53209958 </v>
    <v>       0.45840545       0.22542535       0.27792142 </v>
    <v>       0.48705503       0.08678019       0.42794363 </v>
    <v>       0.44444000       0.22222000       0.04751000 </v>
    <v>       0.56387041       0.28193861       0.49737154 </v>
    <v>       0.32314848       0.99437555       0.34481908 </v>
    <v>       0.55556000       0.11111000       0.19748000 </v>
    <v>       0.66667000       0.00000000       0.12250000 </v>
    <v>       0.81730646       0.12437567       0.53555298 </v>
    <v>       0.76791459       0.21650955       0.27994356 </v>
    <v>       0.89922570       0.11361685       0.42567898 </v>
    <v>       0.77778000       0.22222000       0.04751000 </v>
    <v>       0.73262510       0.19919910       0.43504880 </v>
    <v>       0.67067058       0.98762453       0.37127864 </v>
    <v>       0.88889000       0.11111000       0.19748000 </v>
    <v>       0.00000000       0.33333000       0.12250000 </v>
    <v>       0.10864306       0.32246063       0.54140689 </v>
    <v>       0.10969991       0.55640564       0.27216486 </v>
    <v>       0.33835031       0.50411194       0.42500192 </v>
    <v>       0.11111000       0.55556000       0.04751000 </v>
    <v>       0.14787126       0.55596511       0.44336958 </v>
    <v>       0.00405066       0.33651435       0.34553140 </v>
    <v>       0.22222000       0.44444000       0.19748000 </v>
    <v>       0.33333000       0.33333000       0.12250000 </v>
    <v>       0.32347242       0.33096976       0.52761488 </v>
    <v>       0.44359938       0.55771385       0.27539707 </v>
    <v>       0.50487685       0.41039570       0.42573309 </v>
    <v>       0.44444000       0.55556000       0.04751000 </v>
    <v>       0.57189663       0.61760411       0.49041345 </v>
    <v>       0.32977692       0.32883833       0.34210035 </v>
    <v>       0.55556000       0.44444000       0.19748000 </v>
    <v>       0.66667000       0.33333000       0.12250000 </v>
    <v>       0.82490400       0.36844024       0.53223241 </v>
    <v>       0.77758915       0.55074787       0.27563608 </v>
    <v>       0.90335407       0.45397477       0.42198228 </v>
    <v>       0.77778000       0.55556000       0.04751000 </v>
    <v>       0.76708743       0.55152035       0.47501498 </v>
    <v>       0.67254047       0.34864064       0.36988901 </v>
    <v>       0.88889000       0.44444000       0.19748000 </v>
    <v>       0.00000000       0.66667000       0.12250000 </v>
    <v>       0.00487638       0.63255557       0.55359270 </v>
    <v>       0.10750533       0.88772893       0.27135649 </v>
    <v>       0.27995349       0.80623095       0.43761239 </v>
    <v>       0.11111000       0.88889000       0.04751000 </v>
    <v>       0.13151565       0.90114148       0.42918343 </v>
    <v>       0.00681647       0.67315457       0.34879905 </v>
    <v>       0.22222000       0.77778000       0.19748000 </v>
    <v>       0.33333000       0.66667000       0.12250000 </v>
    <v>       0.34979433       0.67620581       0.53367281 </v>
    <v>       0.45757589       0.89732401       0.27822850 </v>
    <v>       0.50449898       0.76053330       0.42604446 </v>
    <v>       0.44444000       0.88889000       0.04751000 </v>
    <v>       0.55549992       0.95403316       0.49447836 </v>
    <v>       0.32181319       0.66501103       0.34707080 </v>
    <v>       0.55556000       0.77778000       0.19748000 </v>
    <v>       0.66667000       0.66667000       0.12250000 </v>
    <v>       0.80163695       0.72247518       0.57302381 </v>
    <v>       0.77674525       0.89441756       0.27592948 </v>
    <v>       0.88596107       0.78177455       0.43586508 </v>
    <v>       0.77778000       0.88889000       0.04751000 </v>
    <v>       0.76150986       0.88146875       0.48660163 </v>
    <v>       0.67010525       0.66917342       0.34560829 </v>
    <v>       0.88889000       0.77778000       0.19748000 </v>
    <v>       0.31347324       0.99220074       0.44906261 </v>
    <v>       0.72047751       0.03298811       0.46745732 </v>
    <v>       0.32772500       0.33349736       0.44465634 </v>
    <v>       0.72338124       0.35795707       0.46394348 </v>
    <v>       0.33260505       0.66400428       0.45087179 </v>
    <v>       0.74576685       0.70542023       0.49597886 </v>
   </varray>
  </structure>
  <varray name="forces" >
   <v>       0.01202562      -0.04853259       0.08773673 </v>
   <v>       0.00719380       0.03602669      -0.01874701 </v>
   <v>      -0.21454293       0.02333901      -0.39643104 </v>
   <v>       0.01487188      -0.04105468      -0.03193947 </v>
   <v>       0.28853638       0.13809836      -0.20881750 </v>
   <v>      -0.02732494      -0.02210385      -0.16122860 </v>
   <v>      -0.01801980      -0.11217515      -0.15462892 </v>
   <v>       0.02867018       0.07443750      -0.05162941 </v>
   <v>       0.03580906      -0.01786648      -0.06781346 </v>
   <v>      -0.01771769      -0.27498222      -0.48041256 </v>
   <v>       0.03521697       0.05054631      -0.01832634 </v>
   <v>       0.00204433      -0.05442262      -0.19946443 </v>
   <v>       0.04685883      -0.01556299       0.00203924 </v>
   <v>       0.00162351      -0.08253903      -0.23659790 </v>
   <v>      -0.02295562      -0.04423147       0.05150677 </v>
   <v>      -0.02769071       0.01098677      -0.06952920 </v>
   <v>      -0.25955404      -0.03219281      -0.61204226 </v>
   <v>       0.02051942       0.03920686      -0.05470674 </v>
   <v>       0.30929439       0.27651651      -0.22534801 </v>
   <v>      -0.03141396      -0.00026346      -0.01485949 </v>
   <v>      -0.02326309       0.17350245      -0.17134406 </v>
   <v>       0.00099944      -0.05253495      -0.05758515 </v>
   <v>       0.08204863       0.06746057      -0.12590311 </v>
   <v>       0.00320795       0.01481621       0.02924190 </v>
   <v>       0.08389321      -0.05096771       0.00721754 </v>
   <v>       0.03706966       0.00459138      -0.16159664 </v>
   <v>      -0.04765131       0.00181545      -0.01061546 </v>
   <v>      -0.03893833       0.00280638       0.00723435 </v>
   <v>       0.30103915       0.13962975       0.56013661 </v>
   <v>       0.02876059      -0.00797860      -0.06651846 </v>
   <v>       0.02999245      -0.00700964       0.07144136 </v>
   <v>      -0.03034761       0.01836277       0.02444571 </v>
   <v>       0.00733877      -0.09615499       0.02116454 </v>
   <v>       0.00545385       0.01691563       0.04834325 </v>
   <v>      -0.07792477       0.04857432      -0.01524020 </v>
   <v>      -0.01185701      -0.04640165      -0.00964125 </v>
   <v>      -0.01190587      -0.05898222       0.34556504 </v>
   <v>      -0.03389426       0.00002161      -0.13809437 </v>
   <v>       0.02988920      -0.03470814       0.14744853 </v>
   <v>       0.01558983       0.03896055      -0.00451140 </v>
   <v>       0.10203235       0.06988078      -0.04747275 </v>
   <v>      -0.00925272       0.00583079       0.06577911 </v>
   <v>      -0.09857104      -0.00532846      -0.16202698 </v>
   <v>       0.02078362       0.04443610       0.02426322 </v>
   <v>      -0.22639348       0.14086579       0.40389454 </v>
   <v>      -0.10562318       0.00321259      -0.05992031 </v>
   <v>      -0.21916846      -0.12317392       0.05107391 </v>
   <v>      -0.01576999       0.01573866       0.02100122 </v>
   <v>       0.03650763       0.01922371      -0.16472895 </v>
   <v>      -0.01811096       0.00724743      -0.04167406 </v>
   <v>      -0.00672839       0.00958822      -0.05099576 </v>
   <v>      -0.04906405      -0.01915855       0.01956349 </v>
   <v>       0.00892760       0.00340942       0.54207731 </v>
   <v>       0.06347055      -0.01783263      -0.06094463 </v>
   <v>      -0.04077157       0.09372314       0.18434298 </v>
   <v>       0.02757385      -0.04053942      -0.02187184 </v>
   <v>      -0.02542712      -0.00501649      -0.02453861 </v>
   <v>       0.01931566       0.00282162      -0.01281694 </v>
   <v>       0.29042016       0.15742486       0.07095651 </v>
   <v>       0.08811476      -0.00044947      -0.01875812 </v>
   <v>      -0.05480020       0.05467154       0.50602520 </v>
   <v>       0.01096196      -0.00693655      -0.11495466 </v>
   <v>      -0.06447368      -0.01543388      -0.00840131 </v>
   <v>       0.01552024       0.03325459       0.00307804 </v>
   <v>      -0.02860783      -0.07131303       0.01454355 </v>
   <v>      -0.00126028       0.00300477       0.02616478 </v>
   <v>      -0.04086404       0.06360508       0.01380587 </v>
   <v>      -0.03416881      -0.02580687       0.05054634 </v>
   <v>      -0.02011788      -0.24461957       0.38423655 </v>
   <v>      -0.00944088      -0.00008987      -0.11063379 </v>
   <v>       0.14554029      -0.04609923      -0.05762874 </v>
   <v>       0.02447422       0.00321692       0.01187717 </v>
   <v>      -0.00969898      -0.04977472      -0.01685758 </v>
   <v>      -0.00282693      -0.02081762      -0.03909094 </v>
   <v>      -0.02478609      -0.05302537       0.10707329 </v>
   <v>      -0.01282364      -0.03560902       0.03098548 </v>
   <v>       0.27932761       0.20193560       0.55196425 </v>
   <v>      -0.00972770       0.07153215      -0.08819150 </v>
   <v>       0.03314618      -0.09305520      -0.18209442 </v>
   <v>      -0.06045807      -0.02386674       0.00333286 </v>
   <v>       0.06340237       0.08975943      -0.09405081 </v>
   <v>       0.00884899       0.00562216       0.06786163 </v>
   <v>       0.11931669      -0.10831390       0.04197949 </v>
   <v>      -0.02787874       0.04202796       0.00572668 </v>
   <v>      -0.01929088      -0.02424456       0.41848644 </v>
   <v>       0.02114838       0.00197171      -0.12243680 </v>
   <v>       0.03754191       0.10364863       0.11390283 </v>
   <v>       0.04996039      -0.00200649       0.00515973 </v>
   <v>       0.06556864       0.07581660      -0.04103336 </v>
   <v>      -0.00600668      -0.01665397       0.00443295 </v>
   <v>       0.04236439       0.04706538      -0.05612036 </v>
   <v>      -0.03641980      -0.04924689      -0.03358986 </v>
   <v>      -0.24891409      -0.14799392       0.59342928 </v>
   <v>      -0.05250185      -0.02279459      -0.14463227 </v>
   <v>      -0.09511567      -0.14021176      -0.10303259 </v>
   <v>       0.03284597       0.09894210      -0.29622668 </v>
   <v>       0.04729241       0.12541535       0.22313356 </v>
   <v>      -0.04982296      -0.02524602       0.08126851 </v>
   <v>      -0.46246533      -0.23618421      -0.10719127 </v>
  </varray>
  <varray name="stress" >
   <v>       8.58505331       4.37641301      -0.45337770 </v>
   <v>       4.37638975       3.25278533      -0.60216292 </v>
   <v>      -0.45337964      -0.60215769      -0.95905775 </v>
  </varray>
  <energy>
   <i name="e_fr_energy">   -673.39765917 </i>
   <i name="e_wo_entrp">   -673.36653855 </i>
   <i name="e_0_energy">   -673.38209886 </i>
  </energy>
  <time name="totalsc">  674.43  674.82</time>
 </calculation>
 <calculation>
  <scstep>
   <time name="dav">   20.91   20.92</time>
   <time name="total">   23.44   23.46</time>
   <energy>
    <i name="alphaZ">   1839.19756306 </i>
    <i name="ewald"> 129859.36508208 </i>
    <i name="hartreedc">-183760.00140247 </i>
    <i name="XCdc">   2053.19532461 </i>
    <i name="pawpsdc">  57482.08157566 </i>
    <i name="pawaedc"> -56804.75148780 </i>
    <i name="eentropy">     -0.02884244 </i>
    <i name="bandstr">  -8157.84148958 </i>
    <i name="atom">  56815.39572979 </i>
    <i name="e_fr_energy">   -673.38794709 </i>
    <i name="e_wo_entrp">   -673.35910465 </i>
    <i name="e_0_energy">   -673.37352587 </i>
   </energy>
  </scstep>
  <scstep>
   <time name="dav">   28.85   28.87</time>
   <time name="total">   31.41   31.43</time>
   <energy>
    <i name="e_fr_energy">   -673.41245868 </i>
    <i name="e_wo_entrp">   -673.37577648 </i>
    <i name="e_0_energy">   -673.39411758 </i>
   </energy>
  </scstep>
  <scstep>
   <time name="dav">   32.90   32.92</time>
   <time name="total">   35.44   35.46</time>
   <energy>
    <i name="e_fr_energy">   -673.41294997 </i>
    <i name="e_wo_entrp">   -673.38534860 </i>
    <i name="e_0_energy">   -673.39914928 </i>
   </energy>
  </scstep>
  <scstep>
