unknown system                          
           1
    11.598200    0.000000    0.000000
    -5.799100   10.044336    0.000000
     0.000000    0.000000   21.048200
   Ce   O    Ir
    21    72     6
Direct configuration=     1
   0.00003245  0.99990597  0.47326085
   0.21457054  0.10766198  0.31291103
   0.11111000  0.22222000  0.15999000
   0.55198733  0.11013884  0.31081798
   0.44444000  0.22222000  0.15999000
   0.88765297  0.11085958  0.31881716
   0.77778000  0.22222000  0.15999000
   0.00026977  0.33210223  0.47322461
   0.21380207  0.43852001  0.31294951
   0.11111000  0.55556000  0.15999000
   0.55089481  0.44284764  0.31116055
   0.44444000  0.55556000  0.15999000
   0.88740642  0.44355552  0.31886299
   0.77778000  0.55556000  0.15999000
   0.99914108  0.66559609  0.47433286
   0.21391715  0.77321466  0.31287740
   0.11111000  0.88889000  0.15999000
   0.55174985  0.77690106  0.31091526
   0.44444000  0.88889000  0.15999000
   0.88736796  0.77745868  0.31902912
   0.77778000  0.88889000  0.15999000
   0.00000000  0.00000000  0.12250000
   0.99768274  0.99628963  0.56249867
   0.10601204  0.21888436  0.27696733
   0.27143676  0.12976520  0.43090862
   0.11111000  0.22222000  0.04751000
   0.14842714  0.24016093  0.45128224
   0.00144205  0.00041847  0.35579658
   0.22222000  0.11111000  0.19748000
   0.33333000  0.00000000  0.12250000
   0.35720841  0.01181656  0.53362779
   0.44061446  0.22008049  0.27375196
   0.52505680  0.09270114  0.42247440
   0.44444000  0.22222000  0.04751000
   0.47570540  0.24939193  0.48050708
   0.32666684  0.99345736  0.34920024
   0.55556000  0.11111000  0.19748000
   0.66667000  0.00000000  0.12250000
   0.69012764  0.99679654  0.53690623
   0.77507883  0.22189952  0.27925694
   0.86672681  0.09865284  0.43195000
   0.77778000  0.22222000  0.04751000
   0.74334622  0.20568593  0.46587096
   0.65634452  0.99941413  0.35749489
   0.88889000  0.11111000  0.19748000
   0.00000000  0.33333000  0.12250000
   0.99462307  0.32248231  0.56373782
   0.10504836  0.55332712  0.27657059
   0.26817236  0.46356395  0.43033667
   0.11111000  0.55556000  0.04751000
   0.14636927  0.57201238  0.45180124
   0.00026861  0.33399212  0.35533632
   0.22222000  0.44444000  0.19748000
   0.33333000  0.33333000  0.12250000
   0.35577409  0.34609627  0.53468980
   0.44151844  0.55381350  0.27377970
   0.52919565  0.42540666  0.42241979
   0.44444000  0.55556000  0.04751000
   0.48173753  0.58270478  0.47736228
   0.32754523  0.32683528  0.34992762
   0.55556000  0.44444000  0.19748000
   0.66667000  0.33333000  0.12250000
   0.68886058  0.33216634  0.53785597
   0.77580677  0.55670356  0.27949819
   0.86565271  0.43099467  0.43282444
   0.77778000  0.55556000  0.04751000
   0.74308243  0.54390887  0.46494131
   0.65535355  0.33219756  0.35670246
   0.88889000  0.44444000  0.19748000
   0.00000000  0.66667000  0.12250000
   0.99265865  0.65899033  0.56306633
   0.10527366  0.88663833  0.27723715
   0.27177577  0.79809537  0.42978916
   0.11111000  0.88889000  0.04751000
   0.14635333  0.90343100  0.45137345
   0.00053769  0.66735787  0.35577879
   0.22222000  0.77778000  0.19748000
   0.33333000  0.66667000  0.12250000
   0.35685312  0.67755343  0.53289189
   0.44152125  0.88707670  0.27405902
   0.52265440  0.76507798  0.42459235
   0.44444000  0.88889000  0.04751000
   0.47784363  0.91796249  0.48300535
   0.32639883  0.66018147  0.34902048
   0.55556000  0.77778000  0.19748000
   0.66667000  0.66667000  0.12250000
   0.68964700  0.67085289  0.54165808
   0.77542316  0.88848810  0.27985744
   0.86984786  0.76753827  0.43257388
   0.77778000  0.88889000  0.04751000
   0.74196647  0.87144017  0.46525122
   0.65568763  0.66578667  0.35711651
   0.88889000  0.77778000  0.19748000
   0.33671773  0.98547857  0.45133597
   0.66065461  0.02306616  0.45729941
   0.33749593  0.31493720  0.45026559
   0.66170467  0.35829255  0.45548678
   0.33439126  0.65252786  0.45187869
   0.66521469  0.68891777  0.45733716
Direct configuration=     2
   0.99694912  0.00140249  0.46481397
   0.21406054  0.10428170  0.32062384
   0.11111000  0.22222000  0.15999000
   0.55537623  0.10879605  0.31689784
   0.44444000  0.22222000  0.15999000
   0.87734474  0.10582729  0.32708662
   0.77778000  0.22222000  0.15999000
   0.99854729  0.32984857  0.46780167
   0.21311038  0.43989019  0.31134746
   0.11111000  0.55556000  0.15999000
   0.55156921  0.44251041  0.30831626
   0.44444000  0.55556000  0.15999000
   0.88538217  0.43909277  0.31734406
   0.77778000  0.55556000  0.15999000
   0.99676049  0.66379118  0.47293487
   0.21892239  0.77629663  0.31161043
   0.11111000  0.88889000  0.15999000
   0.55189638  0.78246886  0.31686067
   0.44444000  0.88889000  0.15999000
   0.88561606  0.77927509  0.31902823
   0.77778000  0.88889000  0.15999000
   0.00000000  0.00000000  0.12250000
   0.99771861  0.99557829  0.56950345
   0.10411727  0.21782547  0.27570491
   0.27044464  0.12682013  0.43065296
   0.11111000  0.22222000  0.04751000
   0.14725255  0.23951542  0.45138644
   0.99998814  0.99971219  0.35571933
   0.22222000  0.11111000  0.19748000
   0.33333000  0.00000000  0.12250000
   0.35768428  0.01314965  0.53272590
   0.44157212  0.22156165  0.27422554
   0.52710704  0.09484319  0.42247365
   0.44444000  0.22222000  0.04751000
   0.47674329  0.25099436  0.48071863
   0.32654477  0.99334071  0.35089032
   0.55556000  0.11111000  0.19748000
   0.66667000  0.00000000  0.12250000
   0.69098497  0.99644645  0.53640325
   0.77527502  0.22096876  0.27921850
   0.86595544  0.09873854  0.43176959
   0.77778000  0.22222000  0.04751000
   0.74174095  0.20475311  0.46520465
   0.65617468  0.99832897  0.36042032
   0.88889000  0.11111000  0.19748000
   0.00000000  0.33333000  0.12250000
   0.99464591  0.32264393  0.56368445
   0.10501288  0.55348815  0.27670418
   0.27036317  0.46411997  0.43091473
   0.11111000  0.55556000  0.04751000
   0.14485992  0.57016108  0.45159156
   0.00048585  0.33376136  0.35637950
   0.22222000  0.44444000  0.19748000
   0.33333000  0.33333000  0.12250000
   0.35455028  0.34569440  0.53263132
   0.44413065  0.55485148  0.27498807
   0.53017583  0.42659690  0.42232658
   0.44444000  0.55556000  0.04751000
   0.48296202  0.58096068  0.47757324
   0.32875468  0.32800099  0.35104381
   0.55556000  0.44444000  0.19748000
   0.66667000  0.33333000  0.12250000
   0.68927099  0.33346003  0.53491243
   0.77429295  0.55633430  0.27994731
   0.86464213  0.43112188  0.43308582
   0.77778000  0.55556000  0.04751000
   0.74290820  0.54440514  0.46468465
   0.65570059  0.33260739  0.35865305
   0.88889000  0.44444000  0.19748000
   0.00000000  0.66667000  0.12250000
   0.99267286  0.65860065  0.56729907
   0.10513196  0.88494737  0.27745062
   0.27283393  0.79832086  0.43000673
   0.11111000  0.88889000  0.04751000
   0.14932731  0.90466391  0.45075753
   0.00165689  0.66835389  0.35505364
   0.22222000  0.77778000  0.19748000
   0.33333000  0.66667000  0.12250000
   0.35854210  0.67877655  0.53481298
   0.44229868  0.88611178  0.27517805
   0.52064504  0.76476189  0.42454150
   0.44444000  0.88889000  0.04751000
   0.47798162  0.91919395  0.48350412
   0.32645397  0.66089733  0.35025176
   0.55556000  0.77778000  0.19748000
   0.66667000  0.66667000  0.12250000
   0.69099538  0.67324220  0.53963294
   0.77494661  0.88818736  0.28005020
   0.86872381  0.76673337  0.43239388
   0.77778000  0.88889000  0.04751000
   0.74144300  0.87116538  0.46450537
   0.65512031  0.66580622  0.35861635
   0.88889000  0.77778000  0.19748000
   0.33434460  0.98179156  0.45064864
   0.66293677  0.02799635  0.45474270
   0.34069633  0.31687064  0.45076298
   0.66222859  0.35835097  0.45630402
   0.33502683  0.65355535  0.44593265
   0.66648133  0.68641009  0.45841589
Direct configuration=     3
   0.99727587  0.00124389  0.46570913
   0.21411459  0.10463993  0.31980648
   0.11111000  0.22222000  0.15999000
   0.55501709  0.10893835  0.31625353
   0.44444000  0.22222000  0.15999000
   0.87843716  0.10636059  0.32621026
   0.77778000  0.22222000  0.15999000
   0.99872983  0.33008740  0.46837637
   0.21318368  0.43974499  0.31151724
   0.11111000  0.55556000  0.15999000
   0.55149774  0.44254615  0.30861769
   0.44444000  0.55556000  0.15999000
   0.88559669  0.43956571  0.31750503
   0.77778000  0.55556000  0.15999000
   0.99701277  0.66398245  0.47308302
   0.21839196  0.77597001  0.31174470
   0.11111000  0.88889000  0.15999000
   0.55188085  0.78187881  0.31623061
   0.44444000  0.88889000  0.15999000
   0.88580172  0.77908260  0.31902832
   0.77778000  0.88889000  0.15999000
   0.00000000  0.00000000  0.12250000
   0.99771481  0.99565368  0.56876112
   0.10431806  0.21793769  0.27583870
   0.27054978  0.12713224  0.43068005
   0.11111000  0.22222000  0.04751000
   0.14737703  0.23958382  0.45137540
   0.00014222  0.99978704  0.35572752
   0.22222000  0.11111000  0.19748000
   0.33333000  0.00000000  0.12250000
   0.35763385  0.01300837  0.53282147
   0.44147063  0.22140469  0.27417535
   0.52688976  0.09461619  0.42247373
   0.44444000  0.22222000  0.04751000
   0.47663330  0.25082455  0.48069622
   0.32655771  0.99335308  0.35071121
   0.55556000  0.11111000  0.19748000
   0.66667000  0.00000000  0.12250000
   0.69089411  0.99648355  0.53645656
   0.77525423  0.22106740  0.27922258
   0.86603718  0.09872946  0.43178871
   0.77778000  0.22222000  0.04751000
   0.74191107  0.20485196  0.46527526
   0.65619268  0.99844397  0.36011030
   0.88889000  0.11111000  0.19748000
   0.00000000  0.33333000  0.12250000
   0.99464349  0.32262681  0.56369011
   0.10501664  0.55347108  0.27669002
   0.27013099  0.46406104  0.43085347
   0.11111000  0.55556000  0.04751000
   0.14501987  0.57035727  0.45161378
   0.00046283  0.33378581  0.35626894
   0.22222000  0.44444000  0.19748000
   0.33333000  0.33333000  0.12250000
   0.35467997  0.34573699  0.53284947
   0.44385382  0.55474148  0.27486001
   0.53007195  0.42647076  0.42233645
   0.44444000  0.55556000  0.04751000
   0.48283226  0.58114551  0.47755088
   0.32862651  0.32787745  0.35092552
   0.55556000  0.44444000  0.19748000
   0.66667000  0.33333000  0.12250000
   0.68922749  0.33332293  0.53522438
   0.77445338  0.55637343  0.27989971
   0.86474922  0.43110840  0.43305812
   0.77778000  0.55556000  0.04751000
   0.74292666  0.54435255  0.46471185
   0.65566381  0.33256396  0.35844634
   0.88889000  0.44444000  0.19748000
   0.00000000  0.66667000  0.12250000
   0.99267135  0.65864194  0.56685050
   0.10514698  0.88512657  0.27742799
   0.27272180  0.79829696  0.42998367
   0.11111000  0.88889000  0.04751000
   0.14901215  0.90453325  0.45082280
   0.00153828  0.66824834  0.35513049
   0.22222000  0.77778000  0.19748000
   0.33333000  0.66667000  0.12250000
   0.35836311  0.67864693  0.53460939
   0.44221629  0.88621404  0.27505946
   0.52085798  0.76479539  0.42454689
   0.44444000  0.88889000  0.04751000
   0.47796700  0.91906345  0.48345126
   0.32644812  0.66082147  0.35012128
   0.55556000  0.77778000  0.19748000
   0.66667000  0.66667000  0.12250000
   0.69085248  0.67298899  0.53984755
   0.77499711  0.88821923  0.28002977
   0.86884293  0.76681867  0.43241295
   0.77778000  0.88889000  0.04751000
   0.74149847  0.87119450  0.46458442
   0.65518043  0.66580415  0.35845741
   0.88889000  0.77778000  0.19748000
   0.33459609  0.98218229  0.45072148
   0.66269492  0.02747387  0.45501364
   0.34035717  0.31666574  0.45071027
   0.66217307  0.35834478  0.45621741
   0.33495947  0.65344646  0.44656278
   0.66634710  0.68667584  0.45830158
Direct configuration=     4
   0.99846003  0.00066915  0.46895318
   0.21431046  0.10593814  0.31684434
   0.11111000  0.22222000  0.15999000
   0.55371557  0.10945405  0.31391853
   0.44444000  0.22222000  0.15999000
   0.88239607  0.10829326  0.32303435
   0.77778000  0.22222000  0.15999000
   0.99939135  0.33095293  0.47045906
   0.21344933  0.43921876  0.31213251
   0.11111000  0.55556000  0.15999000
   0.55123873  0.44267567  0.30971005
   0.44444000  0.55556000  0.15999000
   0.88637411  0.44127964  0.31808838
   0.77778000  0.55556000  0.15999000
   0.99792705  0.66467564  0.47361992
   0.21646968  0.77478637  0.31223128
   0.11111000  0.88889000  0.15999000
   0.55182457  0.77974048  0.31394725
   0.44444000  0.88889000  0.15999000
   0.88647454  0.77838500  0.31902866
   0.77778000  0.88889000  0.15999000
   0.00000000  0.00000000  0.12250000
   0.99770103  0.99592687  0.56607091
   0.10504576  0.21834436  0.27632354
   0.27093081  0.12826330  0.43077824
   0.11111000  0.22222000  0.04751000
   0.14782813  0.23983173  0.45133538
   0.00070060  0.00005829  0.35575719
   0.22222000  0.11111000  0.19748000
   0.33333000  0.00000000  0.12250000
   0.35745109  0.01249639  0.53316785
   0.44110284  0.22083584  0.27399347
   0.52610236  0.09379353  0.42247402
   0.44444000  0.22222000  0.04751000
   0.47623470  0.25020913  0.48061497
   0.32660459  0.99339787  0.35006213
   0.55556000  0.11111000  0.19748000
   0.66667000  0.00000000  0.12250000
   0.69056485  0.99661800  0.53664973
   0.77517888  0.22142486  0.27923734
   0.86633343  0.09869654  0.43185800
   0.77778000  0.22222000  0.04751000
   0.74252758  0.20521022  0.46553116
   0.65625791  0.99886073  0.35898678
   0.88889000  0.11111000  0.19748000
   0.00000000  0.33333000  0.12250000
   0.99463472  0.32256473  0.56371061
   0.10503027  0.55340924  0.27663872
   0.26928961  0.46384750  0.43063146
   0.11111000  0.55556000  0.04751000
   0.14559954  0.57106827  0.45169431
   0.00037940  0.33387444  0.35586831
   0.22222000  0.44444000  0.19748000
   0.33333000  0.33333000  0.12250000
   0.35514998  0.34589133  0.53364003
   0.44285059  0.55434284  0.27439593
   0.52969551  0.42601365  0.42237225
   0.44444000  0.55556000  0.04751000
   0.48236199  0.58181534  0.47746986
   0.32816201  0.32742976  0.35049685
   0.55556000  0.44444000  0.19748000
   0.66667000  0.33333000  0.12250000
   0.68906988  0.33282609  0.53635485
   0.77503476  0.55651525  0.27972722
   0.86513734  0.43105955  0.43295774
   0.77778000  0.55556000  0.04751000
   0.74299358  0.54416195  0.46481042
   0.65553053  0.33240656  0.35769721
   0.88889000  0.44444000  0.19748000
   0.00000000  0.66667000  0.12250000
   0.99266590  0.65879160  0.56522490
   0.10520140  0.88577599  0.27734601
   0.27231540  0.79821036  0.42990011
   0.11111000  0.88889000  0.04751000
   0.14786998  0.90405975  0.45105935
   0.00110845  0.66786582  0.35540898
   0.22222000  0.77778000  0.19748000
   0.33333000  0.66667000  0.12250000
   0.35771445  0.67817719  0.53387159
   0.44191771  0.88658462  0.27462969
   0.52162968  0.76491678  0.42456642
   0.44444000  0.88889000  0.04751000
   0.47791400  0.91859050  0.48325971
   0.32642695  0.66054654  0.34964840
   0.55556000  0.77778000  0.19748000
   0.66667000  0.66667000  0.12250000
   0.69033463  0.67207137  0.54062532
   0.77518013  0.88833473  0.27995574
   0.86927462  0.76712779  0.43248208
   0.77778000  0.88889000  0.04751000
   0.74169951  0.87130003  0.46487086
   0.65539831  0.66579664  0.35788139
   0.88889000  0.77778000  0.19748000
   0.33550750  0.98359830  0.45098545
   0.66181844  0.02558041  0.45599556
   0.33912804  0.31592320  0.45051924
   0.66197186  0.35832234  0.45590355
   0.33471538  0.65305185  0.44884638
   0.66586064  0.68763892  0.45788728
Direct configuration=     5
   0.99924624  0.00028756  0.47110701
   0.21444050  0.10680006  0.31487769
   0.11111000  0.22222000  0.15999000
   0.55285145  0.10979645  0.31236825
   0.44444000  0.22222000  0.15999000
   0.88502452  0.10957642  0.32092576
   0.77778000  0.22222000  0.15999000
   0.99983056  0.33152758  0.47184184
   0.21362570  0.43886939  0.31254101
   0.11111000  0.55556000  0.15999000
   0.55106677  0.44276165  0.31043530
   0.44444000  0.55556000  0.15999000
   0.88689026  0.44241758  0.31847568
   0.77778000  0.55556000  0.15999000
   0.99853406  0.66513587  0.47397639
   0.21519341  0.77400051  0.31255434
   0.11111000  0.88889000  0.15999000
   0.55178721  0.77832077  0.31243126
   0.44444000  0.88889000  0.15999000
   0.88692125  0.77792184  0.31902889
   0.77778000  0.88889000  0.15999000
   0.00000000  0.00000000  0.12250000
   0.99769189  0.99610825  0.56428479
   0.10552890  0.21861436  0.27664543
   0.27118378  0.12901425  0.43084343
   0.11111000  0.22222000  0.04751000
   0.14812763  0.23999633  0.45130881
   0.00107132  0.00023838  0.35577689
   0.22222000  0.11111000  0.19748000
   0.33333000  0.00000000  0.12250000
   0.35732975  0.01215648  0.53339782
   0.44085865  0.22045817  0.27387272
   0.52557958  0.09324734  0.42247421
   0.44444000  0.22222000  0.04751000
   0.47597005  0.24980053  0.48056103
   0.32663571  0.99342761  0.34963119
   0.55556000  0.11111000  0.19748000
   0.66667000  0.00000000  0.12250000
   0.69034625  0.99670727  0.53677798
   0.77512885  0.22166219  0.27924714
   0.86653012  0.09867469  0.43190400
   0.77778000  0.22222000  0.04751000
   0.74293690  0.20544808  0.46570106
   0.65630121  0.99913743  0.35824083
   0.88889000  0.11111000  0.19748000
   0.00000000  0.33333000  0.12250000
   0.99462889  0.32252352  0.56372421
   0.10503931  0.55336818  0.27660465
   0.26873099  0.46370572  0.43048407
   0.11111000  0.55556000  0.04751000
   0.14598441  0.57154032  0.45174777
   0.00032401  0.33393328  0.35560232
   0.22222000  0.44444000  0.19748000
   0.33333000  0.33333000  0.12250000
   0.35546204  0.34599380  0.53416492
   0.44218452  0.55407817  0.27408782
   0.52944558  0.42571015  0.42239602
   0.44444000  0.55556000  0.04751000
   0.48204976  0.58226006  0.47741607
   0.32785362  0.32713252  0.35021223
   0.55556000  0.44444000  0.19748000
   0.66667000  0.33333000  0.12250000
   0.68896523  0.33249622  0.53710541
   0.77542077  0.55660940  0.27961271
   0.86539502  0.43102711  0.43289109
   0.77778000  0.55556000  0.04751000
   0.74303800  0.54403541  0.46487586
   0.65544204  0.33230206  0.35719984
   0.88889000  0.44444000  0.19748000
   0.00000000  0.66667000  0.12250000
   0.99266228  0.65889097  0.56414562
   0.10523753  0.88620716  0.27729158
   0.27204559  0.79815287  0.42984464
   0.11111000  0.88889000  0.04751000
   0.14711165  0.90374537  0.45121640
   0.00082307  0.66761184  0.35559388
   0.22222000  0.77778000  0.19748000
   0.33333000  0.66667000  0.12250000
   0.35728378  0.67786531  0.53338174
   0.44171948  0.88683066  0.27434436
   0.52214204  0.76499738  0.42457938
   0.44444000  0.88889000  0.04751000
   0.47787882  0.91827650  0.48313253
   0.32641289  0.66036400  0.34933444
   0.55556000  0.77778000  0.19748000
   0.66667000  0.66667000  0.12250000
   0.68999082  0.67146213  0.54114170
   0.77530165  0.88841141  0.27990659
   0.86956124  0.76733303  0.43252798
   0.77778000  0.88889000  0.04751000
   0.74183299  0.87137010  0.46506104
   0.65554297  0.66579166  0.35749895
   0.88889000  0.77778000  0.19748000
   0.33611261  0.98453843  0.45116071
   0.66123653  0.02432328  0.45664749
   0.33831198  0.31543020  0.45039242
   0.66183827  0.35830745  0.45569517
   0.33455332  0.65278985  0.45036254
   0.66553766  0.68827834  0.45761222
Direct configuration=     6
   0.99963934  0.00009676  0.47218393
   0.21450552  0.10723102  0.31389436
   0.11111000  0.22222000  0.15999000
   0.55241939  0.10996765  0.31159311
   0.44444000  0.22222000  0.15999000
   0.88633875  0.11021800  0.31987146
   0.77778000  0.22222000  0.15999000
   0.00005016  0.33181490  0.47253322
   0.21371388  0.43869470  0.31274526
   0.11111000  0.55556000  0.15999000
   0.55098079  0.44280465  0.31079793
   0.44444000  0.55556000  0.15999000
   0.88714834  0.44298655  0.31866933
   0.77778000  0.55556000  0.15999000
   0.99883757  0.66536598  0.47415462
   0.21455528  0.77360759  0.31271587
   0.11111000  0.88889000  0.15999000
   0.55176853  0.77761091  0.31167326
   0.44444000  0.88889000  0.15999000
   0.88714461  0.77769026  0.31902900
   0.77778000  0.88889000  0.15999000
   0.00000000  0.00000000  0.12250000
   0.99768732  0.99619894  0.56339173
   0.10577047  0.21874936  0.27680638
   0.27131027  0.12938973  0.43087603
   0.11111000  0.22222000  0.04751000
   0.14827739  0.24007863  0.45129552
   0.00125669  0.00032842  0.35578674
   0.22222000  0.11111000  0.19748000
   0.33333000  0.00000000  0.12250000
   0.35726908  0.01198652  0.53351280
   0.44073656  0.22026933  0.27381234
   0.52531819  0.09297424  0.42247430
   0.44444000  0.22222000  0.04751000
   0.47583773  0.24959623  0.48053406
   0.32665128  0.99344249  0.34941571
   0.55556000  0.11111000  0.19748000
   0.66667000  0.00000000  0.12250000
   0.69023695  0.99675190  0.53684210
   0.77510384  0.22178085  0.27925204
   0.86662847  0.09866377  0.43192700
   0.77778000  0.22222000  0.04751000
   0.74314156  0.20556701  0.46578601
   0.65632286  0.99927578  0.35786786
   0.88889000  0.11111000  0.19748000
   0.00000000  0.33333000  0.12250000
   0.99462598  0.32250292  0.56373102
   0.10504383  0.55334765  0.27658762
   0.26845167  0.46363484  0.43041037
   0.11111000  0.55556000  0.04751000
   0.14617684  0.57177635  0.45177451
   0.00029631  0.33396270  0.35546932
   0.22222000  0.44444000  0.19748000
   0.33333000  0.33333000  0.12250000
   0.35561806  0.34604504  0.53442736
   0.44185148  0.55394583  0.27393376
   0.52932061  0.42555841  0.42240790
   0.44444000  0.55556000  0.04751000
   0.48189365  0.58248242  0.47738918
   0.32769942  0.32698390  0.35006993
   0.55556000  0.44444000  0.19748000
   0.66667000  0.33333000  0.12250000
   0.68891291  0.33233128  0.53748069
   0.77561377  0.55665648  0.27955545
   0.86552386  0.43101089  0.43285776
   0.77778000  0.55556000  0.04751000
   0.74306022  0.54397214  0.46490858
   0.65539780  0.33224981  0.35695115
   0.88889000  0.44444000  0.19748000
   0.00000000  0.66667000  0.12250000
   0.99266046  0.65894065  0.56360597
   0.10525560  0.88642275  0.27726436
   0.27191068  0.79812412  0.42981690
   0.11111000  0.88889000  0.04751000
   0.14673249  0.90358818  0.45129493
   0.00068038  0.66748486  0.35568633
   0.22222000  0.77778000  0.19748000
   0.33333000  0.66667000  0.12250000
   0.35706845  0.67770937  0.53313681
   0.44162036  0.88695368  0.27420169
   0.52239822  0.76503768  0.42458587
   0.44444000  0.88889000  0.04751000
   0.47786123  0.91811949  0.48306894
   0.32640586  0.66027274  0.34917746
   0.55556000  0.77778000  0.19748000
   0.66667000  0.66667000  0.12250000
   0.68981891  0.67115751  0.54139989
   0.77536240  0.88844976  0.27988201
   0.86970455  0.76743565  0.43255093
   0.77778000  0.88889000  0.04751000
   0.74189973  0.87140513  0.46515613
   0.65561530  0.66578917  0.35730773
   0.88889000  0.77778000  0.19748000
   0.33641517  0.98500850  0.45124834
   0.66094557  0.02369472  0.45697345
   0.33790396  0.31518370  0.45032901
   0.66177147  0.35830000  0.45559098
   0.33447229  0.65265886  0.45112061
   0.66537618  0.68859805  0.45747469
Direct configuration=     7
   0.99983589  0.00000136  0.47272239
   0.21453803  0.10744650  0.31340269
   0.11111000  0.22222000  0.15999000
   0.55220336  0.11005324  0.31120555
   0.44444000  0.22222000  0.15999000
   0.88699586  0.11053879  0.31934431
   0.77778000  0.22222000  0.15999000
   0.00015997  0.33195856  0.47287892
   0.21375798  0.43860735  0.31284739
   0.11111000  0.55556000  0.15999000
   0.55093780  0.44282615  0.31097924
   0.44444000  0.55556000  0.15999000
   0.88727738  0.44327104  0.31876616
   0.77778000  0.55556000  0.15999000
   0.99898933  0.66548104  0.47424374
   0.21423621  0.77341112  0.31279664
   0.11111000  0.88889000  0.15999000
   0.55175919  0.77725599  0.31129426
   0.44444000  0.88889000  0.15999000
   0.88725628  0.77757447  0.31902906
   0.77778000  0.88889000  0.15999000
   0.00000000  0.00000000  0.12250000
   0.99768503  0.99624429  0.56294520
   0.10589126  0.21881686  0.27688686
   0.27137352  0.12957747  0.43089232
   0.11111000  0.22222000  0.04751000
   0.14835226  0.24011978  0.45128888
   0.00134937  0.00037345  0.35579166
   0.22222000  0.11111000  0.19748000
   0.33333000  0.00000000  0.12250000
   0.35723874  0.01190154  0.53357030
   0.44067551  0.22017491  0.27378215
   0.52518750  0.09283769  0.42247435
   0.44444000  0.22222000  0.04751000
   0.47577156  0.24949408  0.48052057
   0.32665906  0.99344992  0.34930798
   0.55556000  0.11111000  0.19748000
   0.66667000  0.00000000  0.12250000
   0.69018229  0.99677422  0.53687417
   0.77509134  0.22184018  0.27925449
   0.86667764  0.09865830  0.43193850
   0.77778000  0.22222000  0.04751000
   0.74324389  0.20562647  0.46582848
   0.65633369  0.99934496  0.35768137
   0.88889000  0.11111000  0.19748000
   0.00000000  0.33333000  0.12250000
   0.99462452  0.32249261  0.56373442
   0.10504610  0.55333738  0.27657911
   0.26831202  0.46359939  0.43037352
   0.11111000  0.55556000  0.04751000
   0.14627306  0.57189436  0.45178787
   0.00028246  0.33397741  0.35540282
   0.22222000  0.44444000  0.19748000
   0.33333000  0.33333000  0.12250000
   0.35569608  0.34607065  0.53455858
   0.44168496  0.55387967  0.27385673
   0.52925813  0.42548253  0.42241385
   0.44444000  0.55556000  0.04751000
   0.48181559  0.58259360  0.47737573
   0.32762232  0.32690959  0.34999877
   0.55556000  0.44444000  0.19748000
   0.66667000  0.33333000  0.12250000
   0.68888675  0.33224881  0.53766833
   0.77571027  0.55668002  0.27952682
   0.86558828  0.43100278  0.43284110
   0.77778000  0.55556000  0.04751000
   0.74307132  0.54394050  0.46492495
   0.65537567  0.33222368  0.35682681
   0.88889000  0.44444000  0.19748000
   0.00000000  0.66667000  0.12250000
   0.99265956  0.65896549  0.56333615
   0.10526463  0.88653054  0.27725076
   0.27184323  0.79810975  0.42980303
   0.11111000  0.88889000  0.04751000
   0.14654291  0.90350959  0.45133419
   0.00060904  0.66742137  0.35573256
   0.22222000  0.77778000  0.19748000
   0.33333000  0.66667000  0.12250000
   0.35696078  0.67763140  0.53301435
   0.44157081  0.88701519  0.27413035
   0.52252631  0.76505783  0.42458911
   0.44444000  0.88889000  0.04751000
   0.47785243  0.91804099  0.48303715
   0.32640234  0.66022710  0.34909897
   0.55556000  0.77778000  0.19748000
   0.66667000  0.66667000  0.12250000
   0.68973295  0.67100520  0.54152899
   0.77539278  0.88846893  0.27986972
   0.86977620  0.76748696  0.43256240
   0.77778000  0.88889000  0.04751000
   0.74193310  0.87142265  0.46520368
   0.65565147  0.66578792  0.35721212
   0.88889000  0.77778000  0.19748000
   0.33656645  0.98524353  0.45129215
   0.66080009  0.02338044  0.45713643
   0.33769994  0.31506045  0.45029730
   0.66173807  0.35829627  0.45553888
   0.33443177  0.65259336  0.45149965
   0.66529543  0.68875791  0.45740593
Direct configuration=     8
   0.99828327  0.99968886  0.47276056
   0.21525884  0.10611989  0.31356426
   0.11111000  0.22222000  0.15999000
   0.55113526  0.10938773  0.31103869
   0.44444000  0.22222000  0.15999000
   0.88521536  0.10923629  0.32003163
   0.77778000  0.22222000  0.15999000
   0.99914643  0.33068900  0.47384422
   0.21529143  0.44042835  0.31174934
   0.11111000  0.55556000  0.15999000
   0.55113995  0.44353721  0.30912440
   0.44444000  0.55556000  0.15999000
   0.88698034  0.44352614  0.31783835
   0.77778000  0.55556000  0.15999000
   0.99710741  0.66438206  0.47435940
   0.21578940  0.77399942  0.31181832
   0.11111000  0.88889000  0.15999000
   0.55051100  0.77690944  0.31173782
   0.44444000  0.88889000  0.15999000
   0.88662797  0.77721857  0.31847514
   0.77778000  0.88889000  0.15999000
   0.00000000  0.00000000  0.12250000
   0.99792946  0.99601060  0.56248061
   0.10543319  0.21882766  0.27683135
   0.27036423  0.12667862  0.43033669
   0.11111000  0.22222000  0.04751000
   0.14607505  0.23839997  0.45152180
   0.00135335  0.00072681  0.35560869
   0.22222000  0.11111000  0.19748000
   0.33333000  0.00000000  0.12250000
   0.35804611  0.01279604  0.53338390
   0.44162235  0.22059978  0.27456972
   0.52456832  0.09357133  0.42229916
   0.44444000  0.22222000  0.04751000
   0.47729972  0.25129948  0.48100072
   0.32614040  0.99333304  0.34975067
   0.55556000  0.11111000  0.19748000
   0.66667000  0.00000000  0.12250000
   0.69180382  0.99724066  0.53647188
   0.77495282  0.22155932  0.27960475
   0.86707813  0.09918106  0.43163995
   0.77778000  0.22222000  0.04751000
   0.74149813  0.20539745  0.46518750
   0.65653556  0.99905351  0.35917674
   0.88889000  0.11111000  0.19748000
   0.00000000  0.33333000  0.12250000
   0.99477774  0.32288412  0.56160343
   0.10500412  0.55287275  0.27674696
   0.27056304  0.46442113  0.43029884
   0.11111000  0.55556000  0.04751000
   0.14436752  0.56994597  0.45155717
   0.00065343  0.33386164  0.35540794
   0.22222000  0.44444000  0.19748000
   0.33333000  0.33333000  0.12250000
   0.35397657  0.34531809  0.53329833
   0.44246026  0.55405228  0.27471907
   0.52975115  0.42639289  0.42204481
   0.44444000  0.55556000  0.04751000
   0.48347854  0.58120660  0.47791469
   0.32718875  0.32673841  0.35023702
   0.55556000  0.44444000  0.19748000
   0.66667000  0.33333000  0.12250000
   0.68966522  0.33418728  0.53565855
   0.77512971  0.55610210  0.27979920
   0.86530975  0.43159134  0.43244420
   0.77778000  0.55556000  0.04751000
   0.74309899  0.54459230  0.46476133
   0.65616659  0.33206505  0.35773900
   0.88889000  0.44444000  0.19748000
   0.00000000  0.66667000  0.12250000
   0.99315135  0.65909220  0.56331722
   0.10538965  0.88626761  0.27722951
   0.27303842  0.79725631  0.42954050
   0.11111000  0.88889000  0.04751000
   0.14724533  0.90309765  0.45120473
   0.00114324  0.66730714  0.35537067
   0.22222000  0.77778000  0.19748000
   0.33333000  0.66667000  0.12250000
   0.35847999  0.67821596  0.53389813
   0.44261779  0.88733198  0.27490052
   0.51988540  0.76465039  0.42397628
   0.44444000  0.88889000  0.04751000
   0.47979339  0.91972969  0.48388563
   0.32555666  0.65952115  0.34942041
   0.55556000  0.77778000  0.19748000