unknown system                          
           1
    11.598200    0.000000    0.000000
    -5.799100   10.044336    0.000000
     0.000000    0.000000   21.048200
   Ce   O    Ir
    21    72     6
Direct configuration=     1
   0.00000000  0.00000000  0.45993000
   0.22222000  0.11111000  0.30996000
   0.11111000  0.22222000  0.15999000
   0.55556000  0.11111000  0.30996000
   0.44444000  0.22222000  0.15999000
   0.88889000  0.11111000  0.30996000
   0.77778000  0.22222000  0.15999000
   0.00000000  0.33333000  0.45993000
   0.22222000  0.44444000  0.30996000
   0.11111000  0.55556000  0.15999000
   0.55556000  0.44444000  0.30996000
   0.44444000  0.55556000  0.15999000
   0.88889000  0.44444000  0.30996000
   0.77778000  0.55556000  0.15999000
   0.00000000  0.66667000  0.45993000
   0.22222000  0.77778000  0.30996000
   0.11111000  0.88889000  0.15999000
   0.55556000  0.77778000  0.30996000
   0.44444000  0.88889000  0.15999000
   0.88889000  0.77778000  0.30996000
   0.77778000  0.88889000  0.15999000
   0.00000000  0.00000000  0.12250000
   0.00000000  0.00000000  0.57241000
   0.11111000  0.22222000  0.27247000
   0.22222000  0.11111000  0.42244000
   0.11111000  0.22222000  0.04751000
   0.11111000  0.22222000  0.49742000
   0.00000000  0.00000000  0.34745000
   0.22222000  0.11111000  0.19748000
   0.33333000  0.00000000  0.12250000
   0.33333000  0.00000000  0.57241000
   0.44444000  0.22222000  0.27247000
   0.55556000  0.11111000  0.42244000
   0.44444000  0.22222000  0.04751000
   0.44444000  0.22222000  0.49742000
   0.33333000  0.00000000  0.34745000
   0.55556000  0.11111000  0.19748000
   0.66667000  0.00000000  0.12250000
   0.66667000  0.00000000  0.57241000
   0.77778000  0.22222000  0.27247000
   0.88889000  0.11111000  0.42244000
   0.77778000  0.22222000  0.04751000
   0.77778000  0.22222000  0.49742000
   0.66667000  0.00000000  0.34745000
   0.88889000  0.11111000  0.19748000
   0.00000000  0.33333000  0.12250000
   0.00000000  0.33333000  0.57241000
   0.11111000  0.55556000  0.27247000
   0.22222000  0.44444000  0.42244000
   0.11111000  0.55556000  0.04751000
   0.11111000  0.55556000  0.49742000
   0.00000000  0.33333000  0.34745000
   0.22222000  0.44444000  0.19748000
   0.33333000  0.33333000  0.12250000
   0.33333000  0.33333000  0.57241000
   0.44444000  0.55556000  0.27247000
   0.55556000  0.44444000  0.42244000
   0.44444000  0.55556000  0.04751000
   0.44444000  0.55556000  0.49742000
   0.33333000  0.33333000  0.34745000
   0.55556000  0.44444000  0.19748000
   0.66667000  0.33333000  0.12250000
   0.66667000  0.33333000  0.57241000
   0.77778000  0.55556000  0.27247000
   0.88889000  0.44444000  0.42244000
   0.77778000  0.55556000  0.04751000
   0.77778000  0.55556000  0.49742000
   0.66667000  0.33333000  0.34745000
   0.88889000  0.44444000  0.19748000
   0.00000000  0.66667000  0.12250000
   0.00000000  0.66667000  0.57241000
   0.11111000  0.88889000  0.27247000
   0.22222000  0.77778000  0.42244000
   0.11111000  0.88889000  0.04751000
   0.11111000  0.88889000  0.49742000
   0.00000000  0.66667000  0.34745000
   0.22222000  0.77778000  0.19748000
   0.33333000  0.66667000  0.12250000
   0.33333000  0.66667000  0.57241000
   0.44444000  0.88889000  0.27247000
   0.55556000  0.77778000  0.42244000
   0.44444000  0.88889000  0.04751000
   0.44444000  0.88889000  0.49742000
   0.33333000  0.66667000  0.34745000
   0.55556000  0.77778000  0.19748000
   0.66667000  0.66667000  0.12250000
   0.66667000  0.66667000  0.57241000
   0.77778000  0.88889000  0.27247000
   0.88889000  0.77778000  0.42244000
   0.77778000  0.88889000  0.04751000
   0.77778000  0.88889000  0.49742000
   0.66667000  0.66667000  0.34745000
   0.88889000  0.77778000  0.19748000
   0.33333000  0.00000000  0.45993000
   0.66667000  0.00000000  0.45993000
   0.33333000  0.33333000  0.45993000
   0.66667000  0.33333000  0.45993000
   0.33333000  0.66667000  0.45993000
   0.66667000  0.66667000  0.45993000
Direct configuration=     2
   0.99967091  0.99951862  0.46070080
   0.22084402  0.11034736  0.30977767
   0.11111000  0.22222000  0.15999000
   0.55573722  0.11124969  0.30916486
   0.44444000  0.22222000  0.15999000
   0.88968358  0.11093505  0.31020471
   0.77778000  0.22222000  0.15999000
   0.99976176  0.33208104  0.46091022
   0.22126560  0.44358661  0.30937015
   0.11111000  0.55556000  0.15999000
   0.55580055  0.44448993  0.30921573
   0.44444000  0.55556000  0.15999000
   0.88916354  0.44439784  0.30972070
   0.77778000  0.55556000  0.15999000
   0.99969834  0.66763176  0.46103128
   0.22156346  0.77791225  0.30934017
   0.11111000  0.88889000  0.15999000
   0.55631790  0.77820488  0.30912926
   0.44444000  0.88889000  0.15999000
   0.88962020  0.77892400  0.31011749
   0.77778000  0.88889000  0.15999000
   0.00000000  0.00000000  0.12250000
   0.00058782  0.00041112  0.57428118
   0.11173306  0.22261215  0.27277507
   0.23337748  0.11698834  0.42455555
   0.11111000  0.22222000  0.04751000
   0.12089908  0.22846048  0.49637200
   0.00084160  0.00047317  0.34591053
   0.22222000  0.11111000  0.19748000
   0.33333000  0.00000000  0.12250000
   0.33309696  0.99967056  0.56641878
   0.44469189  0.22235070  0.27289408
   0.55524953  0.11106927  0.42711008
   0.44444000  0.22222000  0.04751000
   0.44470715  0.22243690  0.49379089
   0.33356257  0.99993868  0.35081924
   0.55556000  0.11111000  0.19748000
   0.66667000  0.00000000  0.12250000
   0.66700798  0.00009937  0.56592129
   0.77706866  0.22194141  0.27282686
   0.88018597  0.10794001  0.42301011
   0.77778000  0.22222000  0.04751000
   0.76648283  0.21652338  0.49515393
   0.66567289  0.99946403  0.35066253
   0.88889000  0.11111000  0.19748000
   0.00000000  0.33333000  0.12250000
   0.00052399  0.33348782  0.57324849
   0.11169533  0.55601078  0.27288054
   0.23161801  0.44912743  0.42471684
   0.11111000  0.55556000  0.04751000
   0.12006127  0.56096442  0.49593325
   0.00100029  0.33397400  0.34680042
   0.22222000  0.44444000  0.19748000
   0.33333000  0.33333000  0.12250000
   0.33402667  0.33360485  0.56586164
   0.44462619  0.55571879  0.27293113
   0.55514311  0.44413620  0.42701646
   0.44444000  0.55556000  0.04751000
   0.44456444  0.55582381  0.49376125
   0.33360985  0.33355921  0.35103621
   0.55556000  0.44444000  0.19748000
   0.66667000  0.33333000  0.12250000
   0.66652879  0.33334874  0.56612863
   0.77716186  0.55520320  0.27287664
   0.88148659  0.44186115  0.42345931
   0.77778000  0.55556000  0.04751000
   0.76784740  0.55067613  0.49490558
   0.66587258  0.33294013  0.35063033
   0.88889000  0.44444000  0.19748000
   0.00000000  0.66667000  0.12250000
   0.00045742  0.66698730  0.57262589
   0.11169186  0.88894943  0.27285378
   0.23026069  0.78171369  0.42486925
   0.11111000  0.88889000  0.04751000
   0.12031954  0.89115633  0.49602118
   0.00097286  0.66705591  0.34746509
   0.22222000  0.77778000  0.19748000
   0.33333000  0.66667000  0.12250000
   0.33291426  0.66654710  0.56579280
   0.44451776  0.88886190  0.27294237
   0.55500976  0.77738399  0.42713515
   0.44444000  0.88889000  0.04751000
   0.44469576  0.88896972  0.49363842
   0.33352672  0.66687170  0.35146992
   0.55556000  0.77778000  0.19748000
   0.66667000  0.66667000  0.12250000
   0.66669487  0.66664228  0.56592501
   0.77694641  0.88844608  0.27282392
   0.88028463  0.77116042  0.42325555
   0.77778000  0.88889000  0.04751000
   0.76481732  0.88249967  0.49528246
   0.66573187  0.66623913  0.35073580
   0.88889000  0.77778000  0.19748000
   0.33335832  0.00061205  0.46340494
   0.66726866  0.00050420  0.46358777
   0.33255747  0.33250405  0.46331648
   0.66687155  0.33311215  0.46361285
   0.33365088  0.66639411  0.46266012
   0.66752636  0.66723629  0.46352830
Direct configuration=     3
   0.99893809  0.99844666  0.46241724
   0.21777992  0.10864908  0.30937165
   0.11111000  0.22222000  0.15999000
   0.55613186  0.11156074  0.30739422
   0.44444000  0.22222000  0.15999000
   0.89145077  0.11054547  0.31074964
   0.77778000  0.22222000  0.15999000
   0.99923123  0.32929980  0.46309302
   0.21914031  0.44168624  0.30805663
   0.11111000  0.55556000  0.15999000
   0.55633623  0.44460112  0.30755837
   0.44444000  0.55556000  0.15999000
   0.88977268  0.44430395  0.30918781
   0.77778000  0.55556000  0.15999000
   0.99902659  0.66977345  0.46348364
   0.22010146  0.77820676  0.30795992
   0.11111000  0.88889000  0.15999000
   0.55800561  0.77915102  0.30727934
   0.44444000  0.88889000  0.15999000
   0.89124624  0.78147150  0.31046821
   0.77778000  0.88889000  0.15999000
   0.00000000  0.00000000  0.12250000
   0.00189679  0.00132663  0.57844799
   0.11312052  0.22348540  0.27345442
   0.25822337  0.13007845  0.42926652
   0.11111000  0.22222000  0.04751000
   0.14269776  0.24235703  0.49403828
   0.00271570  0.00152686  0.34248238
   0.22222000  0.11111000  0.19748000
   0.33333000  0.00000000  0.12250000
   0.33257801  0.99893695  0.55307729
   0.44525281  0.22264175  0.27383842
   0.55455817  0.11097858  0.43750960
   0.44444000  0.22222000  0.04751000
   0.44530205  0.22291989  0.48570944
   0.33408046  0.99980213  0.35832199
   0.55556000  0.11111000  0.19748000
   0.66667000  0.00000000  0.12250000
   0.66776060  0.00032064  0.55147199
   0.77548464  0.22132104  0.27362152
   0.86080351  0.10088096  0.42427965
   0.77778000  0.22222000  0.04751000
   0.74132587  0.20383794  0.49010776
   0.66345249  0.99827050  0.35781630
   0.88889000  0.11111000  0.19748000
   0.00000000  0.33333000  0.12250000
   0.00169084  0.33383927  0.57511566
   0.11299877  0.55701460  0.27379474
   0.25254585  0.45956559  0.42978700
   0.11111000  0.55556000  0.04751000
   0.13999431  0.57299918  0.49262251
   0.00322776  0.33540809  0.34535391
   0.22222000  0.44444000  0.19748000
   0.33333000  0.33333000  0.12250000
   0.33557804  0.33421690  0.55127951
   0.44504082  0.55607237  0.27395798
   0.55421478  0.44345970  0.43720750
   0.44444000  0.55556000  0.04751000
   0.44484155  0.55641127  0.48561379
   0.33423303  0.33406963  0.35902212
   0.55556000  0.44444000  0.19748000
   0.66667000  0.33333000  0.12250000
   0.66621435  0.33339046  0.55214103
   0.77578536  0.55440867  0.27378215
   0.86500041  0.43611846  0.42572916
   0.77778000  0.55556000  0.04751000
   0.74572911  0.53980054  0.48930637
   0.66409686  0.33207196  0.35771241
   0.88889000  0.44444000  0.19748000
   0.00000000  0.66667000  0.12250000
   0.00147601  0.66769386  0.57310665
   0.11298756  0.88908178  0.27370838
   0.24816601  0.79047339  0.43027880
   0.11111000  0.88889000  0.04751000
   0.14082768  0.89620309  0.49290622
   0.00313925  0.66791528  0.34749870
   0.22222000  0.77778000  0.19748000
   0.33333000  0.66667000  0.12250000
   0.33198846  0.66627341  0.55105737
   0.44469091  0.88879933  0.27399425
   0.55378445  0.77650214  0.43759049
   0.44444000  0.88889000  0.04751000
   0.44526530  0.88914724  0.48521746
   0.33396478  0.66732085  0.36042162
   0.55556000  0.77778000  0.19748000
   0.66667000  0.66667000  0.12250000
   0.66675026  0.66658054  0.55148399
   0.77509015  0.88745753  0.27361205
   0.86112186  0.75641968  0.42507165
   0.77778000  0.88889000  0.04751000
   0.73595154  0.86826942  0.49052251
   0.66364281  0.66527967  0.35805274
   0.88889000  0.77778000  0.19748000
   0.33342139  0.00197498  0.47114306
   0.66860178  0.00162696  0.47173305
   0.33083717  0.33066478  0.47085761
   0.66732036  0.33262704  0.47181398
   0.33436544  0.66577976  0.46873967
   0.66943333  0.66849733  0.47154112
Direct configuration=     4
   0.99935776  0.99906055  0.46143428
   0.21953466  0.10962164  0.30960417
   0.11111000  0.22222000  0.15999000
   0.55590586  0.11138261  0.30840823
   0.44444000  0.22222000  0.15999000
   0.89043874  0.11076857  0.31043757
   0.77778000  0.22222000  0.15999000
   0.99953505  0.33089255  0.46184298
   0.22035741  0.44277454  0.30880885
   0.11111000  0.55556000  0.15999000
   0.55602946  0.44453745  0.30850750
   0.44444000  0.55556000  0.15999000
   0.88942384  0.44435772  0.30949298
   0.77778000  0.55556000  0.15999000
   0.99941129  0.66854696  0.46207923
   0.22093872  0.77803810  0.30875036
   0.11111000  0.88889000  0.15999000
   0.55703909  0.77860919  0.30833875
   0.44444000  0.88889000  0.15999000
   0.89031505  0.78001260  0.31026736
   0.77778000  0.88889000  0.15999000
   0.00000000  0.00000000  0.12250000
   0.00114717  0.00080234  0.57606175
   0.11232595  0.22298531  0.27306537
   0.24399469  0.12258204  0.42656865
   0.11111000  0.22222000  0.04751000
   0.13021415  0.23439879  0.49537475
   0.00164244  0.00092344  0.34444560
   0.22222000  0.11111000  0.19748000
   0.33333000  0.00000000  0.12250000
   0.33287520  0.99935707  0.56071766
   0.44493159  0.22247507  0.27329762
   0.55495410  0.11103052  0.43155403
   0.44444000  0.22222000  0.04751000
   0.44496136  0.22264329  0.49033750
   0.33378387  0.99988033  0.35402533
   0.55556000  0.11111000  0.19748000
   0.66667000  0.00000000  0.12250000
   0.66732959  0.00019392  0.55974678
   0.77639177  0.22167631  0.27316643
   0.87190340  0.10492352  0.42355261
   0.77778000  0.22222000  0.04751000
   0.75573269  0.21110260  0.49299758
   0.66472406  0.99895401  0.35371950
   0.88889000  0.11111000  0.19748000
   0.00000000  0.33333000  0.12250000
   0.00102261  0.33363801  0.57404637
   0.11225232  0.55643974  0.27327120
   0.24056095  0.45358790  0.42688344
   0.11111000  0.55556000  0.04751000
   0.12857911  0.56610715  0.49451850
   0.00195214  0.33458682  0.34618229
   0.22222000  0.44444000  0.19748000
   0.33333000  0.33333000  0.12250000
   0.33468961  0.33386639  0.55963037
   0.44480337  0.55586988  0.27336993
   0.55474641  0.44384712  0.43137132
   0.44444000  0.55556000  0.04751000
   0.44468285  0.55607485  0.49027965
   0.33387615  0.33377733  0.35444877
   0.55556000  0.44444000  0.19748000
   0.66667000  0.33333000  0.12250000
   0.66639443  0.33336657  0.56015141
   0.77657365  0.55486368  0.27326358
   0.87444167  0.43940717  0.42442927
   0.77778000  0.55556000  0.04751000
   0.75839575  0.54602874  0.49251291
   0.66511377  0.33256914  0.35365666
   0.88889000  0.44444000  0.19748000
   0.00000000  0.66667000  0.12250000
   0.00089268  0.66728923  0.57283133
   0.11224554  0.88900599  0.27321897
   0.23791204  0.78545691  0.42718087
   0.11111000  0.88889000  0.04751000
   0.12908313  0.89331293  0.49469009
   0.00189861  0.66742314  0.34747945
   0.22222000  0.77778000  0.19748000
   0.33333000  0.66667000  0.12250000
   0.33251864  0.66643015  0.55949602
   0.44459175  0.88883516  0.27339186
   0.55448616  0.77700716  0.43160296
   0.44444000  0.88889000  0.04751000
   0.44493914  0.88904558  0.49003995
   0.33371391  0.66706363  0.35529518
   0.55556000  0.77778000  0.19748000
   0.66667000  0.66667000  0.12250000
   0.66671854  0.66661590  0.55975403
   0.77615319  0.88802365  0.27316071
   0.87209594  0.76486137  0.42403161
   0.77778000  0.88889000  0.04751000
   0.75248232  0.87641876  0.49324843
   0.66483917  0.66582913  0.35386250
   0.88889000  0.77778000  0.19748000
   0.33338527  0.00119446  0.46671161
   0.66783833  0.00098398  0.46706843
   0.33182235  0.33171809  0.46653897
   0.66706334  0.33290485  0.46711738
   0.33395623  0.66613159  0.46525805
   0.66834125  0.66777516  0.46695236
Direct configuration=     5
   0.99906160  0.99862733  0.46212795
   0.21829635  0.10893530  0.30944008
   0.11111000  0.22222000  0.15999000
   0.55606535  0.11150832  0.30769264
   0.44444000  0.22222000  0.15999000
   0.89115293  0.11061113  0.31065780
   0.77778000  0.22222000  0.15999000
   0.99932065  0.32976855  0.46272513
   0.21949850  0.44200653  0.30827801
   0.11111000  0.55556000  0.15999000
   0.55624594  0.44458238  0.30783770
   0.44444000  0.55556000  0.15999000
   0.88967001  0.44431977  0.30927762
   0.77778000  0.55556000  0.15999000
   0.99913981  0.66941249  0.46307032
   0.22034787  0.77815712  0.30819255
   0.11111000  0.88889000  0.15999000
   0.55772116  0.77899155  0.30759112
   0.44444000  0.88889000  0.15999000
   0.89097219  0.78104215  0.31040910
   0.77778000  0.88889000  0.15999000
   0.00000000  0.00000000  0.12250000
   0.00167618  0.00117233  0.57774572
   0.11288668  0.22333822  0.27333992
   0.25403585  0.12787225  0.42847253
   0.11111000  0.22222000  0.04751000
   0.13902381  0.24001491  0.49443160
   0.00239984  0.00134927  0.34306016
   0.22222000  0.11111000  0.19748000
   0.33333000  0.00000000  0.12250000
   0.33266547  0.99906059  0.55532586
   0.44515828  0.22259269  0.27367926
   0.55467469  0.11099387  0.43575687
   0.44444000  0.22222000  0.04751000
   0.44520178  0.22283849  0.48707148
   0.33399317  0.99982514  0.35705748
   0.55556000  0.11111000  0.19748000
   0.66667000  0.00000000  0.12250000
   0.66763375  0.00028335  0.55390728
   0.77575161  0.22142560  0.27348758
   0.86407022  0.10207069  0.42406568
   0.77778000  0.22222000  0.04751000
   0.74556582  0.20597594  0.49095824
   0.66382672  0.99847166  0.35661060
   0.88889000  0.11111000  0.19748000
   0.00000000  0.33333000  0.12250000
   0.00149418  0.33378004  0.57480097
   0.11277909  0.55684542  0.27364066
   0.24901867  0.45780635  0.42893248
   0.11111000  0.55556000  0.04751000
   0.13663480  0.57097084  0.49318050
   0.00285234  0.33516639  0.34559770
   0.22222000  0.44444000  0.19748000
   0.33333000  0.33333000  0.12250000
   0.33531657  0.33411374  0.55373718
   0.44497094  0.55601278  0.27378492
   0.55437124  0.44357372  0.43548990
   0.44444000  0.55556000  0.04751000
   0.44479484  0.55631226  0.48698696
   0.33412800  0.33398361  0.35767618
   0.55556000  0.44444000  0.19748000
   0.66667000  0.33333000  0.12250000
   0.66626735  0.33338343  0.55449850
   0.77601736  0.55454258  0.27362953
   0.86777899  0.43708633  0.42534660
   0.77778000  0.55556000  0.04751000
   0.74945693  0.54163351  0.49025006
   0.66439614  0.33221828  0.35651880
   0.88889000  0.44444000  0.19748000
   0.00000000  0.66667000  0.12250000
   0.00130433  0.66757478  0.57302562
   0.11276918  0.88905947  0.27356435
   0.24514825  0.78899703  0.42936707
   0.11111000  0.88889000  0.04751000
   0.13737124  0.89535251  0.49343122
   0.00277413  0.66777044  0.34749303
   0.22222000  0.77778000  0.19748000
   0.33333000  0.66667000  0.12250000
   0.33214450  0.66631954  0.55354088
   0.44466173  0.88880987  0.27381696
   0.55399096  0.77665077  0.43582835
   0.44444000  0.88889000  0.04751000
   0.44516931  0.88911732  0.48663673
   0.33389095  0.66724515  0.35891290
   0.55556000  0.77778000  0.19748000
   0.66667000  0.66667000  0.12250000
   0.66674093  0.66659095  0.55391787
   0.77540300  0.88762414  0.27347922
   0.86435155  0.75890409  0.42476557
   0.77778000  0.88889000  0.04751000
   0.74081658  0.87066779  0.49132475
   0.66399490  0.66544137  0.35681955
   0.88889000  0.77778000  0.19748000
   0.33341076  0.00174527  0.46983888
   0.66837710  0.00143773  0.47036024
   0.33112711  0.33097477  0.46958663
   0.66724472  0.33270880  0.47043176
   0.33424501  0.66588330  0.46771502
   0.66911193  0.66828479  0.47019064
Direct configuration=     6
   0.99918478  0.99880752  0.46183944
   0.21881139  0.10922077  0.30950833
   0.11111000  0.22222000  0.15999000
   0.55599901  0.11145603  0.30799027
   0.44444000  0.22222000  0.15999000
   0.89085588  0.11067662  0.31056620
   0.77778000  0.22222000  0.15999000
   0.99940982  0.33023605  0.46235822
   0.21985575  0.44232596  0.30849880
   0.11111000  0.55556000  0.15999000
   0.55615590  0.44456369  0.30811629
   0.44444000  0.55556000  0.15999000
   0.88956762  0.44433555  0.30936720
   0.77778000  0.55556000  0.15999000
   0.99925272  0.66905250  0.46265810
   0.22059362  0.77810762  0.30842455
   0.11111000  0.88889000  0.15999000
   0.55743747  0.77883252  0.30790208
   0.44444000  0.88889000  0.15999000
   0.89069887  0.78061393  0.31035015
   0.77778000  0.88889000  0.15999000
   0.00000000  0.00000000  0.12250000
   0.00145615  0.00101844  0.57704531
   0.11265346  0.22319143  0.27322573
   0.24985948  0.12567191  0.42768066
   0.11111000  0.22222000  0.04751000
   0.13535965  0.23767902  0.49482388
   0.00208482  0.00117215  0.34363640
   0.22222000  0.11111000  0.19748000
   0.33333000  0.00000000  0.12250000
   0.33275270  0.99918390  0.55756845
   0.44506399  0.22254377  0.27352053
   0.55479090  0.11100911  0.43400880
   0.44444000  0.22222000  0.04751000
   0.44510178  0.22275730  0.48842990
   0.33390612  0.99984810  0.35579633
   0.55556000  0.11111000  0.19748000
   0.66667000  0.00000000  0.12250000
   0.66750724  0.00024616  0.55633607
   0.77601787  0.22152988  0.27335401
   0.86732824  0.10325726  0.42385228
   0.77778000  0.22222000  0.04751000
   0.74979448  0.20810825  0.49180645
   0.66419994  0.99867228  0.35540812
   0.88889000  0.11111000  0.19748000
   0.00000000  0.33333000  0.12250000
   0.00129804  0.33372096  0.57448711
   0.11255999  0.55667668  0.27348699
   0.24550089  0.45605179  0.42808023
   0.11111000  0.55556000  0.04751000
   0.13328423  0.56894791  0.49373701
   0.00247793  0.33492534  0.34584085
   0.22222000  0.44444000  0.19748000
   0.33333000  0.33333000  0.12250000
   0.33505580  0.33401086  0.55618831
   0.44490124  0.55595335  0.27361231
   0.55452728  0.44368743  0.43377688
   0.44444000  0.55556000  0.04751000
   0.44474826  0.55621351  0.48835648
   0.33402325  0.33389781  0.35633382
   0.55556000  0.44444000  0.19748000
   0.66667000  0.33333000  0.12250000
   0.66632020  0.33337642  0.55684969
   0.77624873  0.55467613  0.27347733
   0.87055017  0.43805163  0.42496506
   0.77778000  0.55556000  0.04751000
   0.75317481  0.54346160  0.49119123
   0.66469462  0.33236422  0.35532836
   0.88889000  0.44444000  0.19748000
   0.00000000  0.66667000  0.12250000
   0.00113312  0.66745601  0.57294481
   0.11255139  0.88903723  0.27342070
   0.24213853  0.78752460  0.42845778
   0.11111000  0.88889000  0.04751000
   0.13392401  0.89450419  0.49395481
   0.00240997  0.66762599  0.34748739
   0.22222000  0.77778000  0.19748000
   0.33333000  0.66667000  0.12250000
   0.33230011  0.66636554  0.55601778
   0.44463262  0.88882039  0.27364015
   0.55419693  0.77679900  0.43407090
   0.44444000  0.88889000  0.04751000
   0.44507358  0.88908748  0.48805222
   0.33381731  0.66716965  0.35740820
   0.55556000  0.77778000  0.19748000
   0.66667000  0.66667000  0.12250000
   0.66673162  0.66660132  0.55634528
   0.77571502  0.88779031  0.27334674
   0.86757264  0.76138187  0.42446030
   0.77778000  0.88889000  0.04751000
   0.74566866  0.87305976  0.49212486
   0.66434605  0.66560265  0.35558963
   0.88889000  0.77778000  0.19748000
   0.33340016  0.00151618  0.46853817
   0.66815301  0.00124901  0.46899110
   0.33141628  0.33128394  0.46831903
   0.66716928  0.33279034  0.46905322
   0.33412490  0.66598657  0.46669311
   0.66879138  0.66807282  0.46884376
Direct configuration=     7
   0.99914757  0.99875309  0.46192659
   0.21865581  0.10913454  0.30948771
   0.11111000  0.22222000  0.15999000
   0.55601905  0.11147183  0.30790036
   0.44444000  0.22222000  0.15999000
   0.89094561  0.11065683  0.31059387
   0.77778000  0.22222000  0.15999000
   0.99938289  0.33009483  0.46246906
   0.21974783  0.44222947  0.30843211
   0.11111000  0.55556000  0.15999000
   0.55618310  0.44456934  0.30803213
   0.44444000  0.55556000  0.15999000
   0.88959855  0.44433079  0.30934014
   0.77778000  0.55556000  0.15999000
   0.99921862  0.66916124  0.46278262
   0.22051938  0.77812257  0.30835447
   0.11111000  0.88889000  0.15999000
   0.55752317  0.77888056  0.30780814
   0.44444000  0.88889000  0.15999000
   0.89078143  0.78074329  0.31036796
   0.77778000  0.88889000  0.15999000
   0.00000000  0.00000000  0.12250000
   0.00152262  0.00106493  0.57725689
   0.11272391  0.22323578  0.27326023
   0.25112107  0.12633659  0.42791987
   0.11111000  0.22222000  0.04751000
   0.13646652  0.23838464  0.49470538
   0.00217998  0.00122566  0.34346233
   0.22222000  0.11111000  0.19748000
   0.33333000  0.00000000  0.12250000
   0.33272635  0.99914665  0.55689101
   0.44509247  0.22255855  0.27356848
   0.55475580  0.11100451  0.43453686
   0.44444000  0.22222000  0.04751000
   0.44513199  0.22278183  0.48801955
   0.33393241  0.99984116  0.35617730
   0.55556000  0.11111000  0.19748000
   0.66667000  0.00000000  0.12250000
   0.66754546  0.00025739  0.55560239
   0.77593744  0.22149838  0.27339436
   0.86634407  0.10289882  0.42391675
   0.77778000  0.22222000  0.04751000
   0.74851709  0.20746413  0.49155023
   0.66408720  0.99861168  0.35577136
   0.88889000  0.11111000  0.19748000
   0.00000000  0.33333000  0.12250000
   0.00135729  0.33373881  0.57458192
   0.11262617  0.55672765  0.27353341
   0.24656354  0.45658180  0.42833768
   0.11111000  0.55556000  0.04751000
   0.13429637  0.56955899  0.49356890
   0.00259103  0.33499815  0.34576740
   0.22222000  0.44444000  0.19748000
   0.33333000  0.33333000  0.12250000
   0.33513457  0.33404194  0.55544788
   0.44492229  0.55597130  0.27366445
   0.55448015  0.44365308  0.43429435
   0.44444000  0.55556000  0.04751000
   0.44476234  0.55624334  0.48794278
   0.33405489  0.33392373  0.35673931
   0.55556000  0.44444000  0.19748000
   0.66667000  0.33333000  0.12250000
   0.66630424  0.33337854  0.55613944
   0.77617884  0.55463579  0.27352330
   0.86971305  0.43776003  0.42508031
   0.77778000  0.55556000  0.04751000
   0.75205172  0.54290938  0.49090693
   0.66460445  0.33232013  0.35568797
   0.88889000  0.44444000  0.19748000
   0.00000000  0.66667000  0.12250000
   0.00118484  0.66749189  0.57296922
   0.11261718  0.88904395  0.27346409
   0.24304770  0.78796939  0.42873245
   0.11111000  0.88889000  0.04751000
   0.13496534  0.89476045  0.49379665
   0.00251998  0.66766963  0.34748909
   0.22222000  0.77778000  0.19748000
   0.33333000  0.66667000  0.12250000
   0.33225310  0.66635165  0.55526956
   0.44464141  0.88881721  0.27369356
   0.55413471  0.77675422  0.43460179
   0.44444000  0.88889000  0.04751000
   0.44510250  0.88909649  0.48762463
   0.33383956  0.66719246  0.35786274
   0.55556000  0.77778000  0.19748000
   0.66667000  0.66667000  0.12250000
   0.66673443  0.66659819  0.55561201
   0.77562077  0.88774011  0.27338676
   0.86659962  0.76063339  0.42455251
   0.77778000  0.88889000  0.04751000
   0.74420295  0.87233720  0.49188316
   0.66423998  0.66555393  0.35596116
   0.88889000  0.77778000  0.19748000
   0.33340336  0.00158538  0.46893109
   0.66822070  0.00130602  0.46940469
   0.33132893  0.33119054  0.46870194
   0.66719207  0.33276571  0.46946965
   0.33416118  0.66595538  0.46700181
   0.66888821  0.66813685  0.46925062
Direct configuration=     8
   0.99977200  0.99904063  0.46673483
   0.22768803  0.11368433  0.31131611
   0.11111000  0.22222000  0.15999000
   0.55514794  0.11119861  0.31285716
   0.44444000  0.22222000  0.15999000
   0.88451513  0.10928352  0.31041362
   0.77778000  0.22222000  0.15999000
   0.00070368  0.33286403  0.46716354
   0.22693092  0.44676730  0.31123425
   0.11111000  0.55556000  0.15999000
   0.55550037  0.44419273  0.31312073
   0.44444000  0.55556000  0.15999000
   0.88485575  0.44307395  0.31067593
   0.77778000  0.55556000  0.15999000
   0.00019624  0.66718978  0.46682508
   0.22624680  0.78003954  0.31179839
   0.11111000  0.88889000  0.15999000
   0.55536341  0.77767999  0.31299500
   0.44444000  0.88889000  0.15999000
   0.88472166  0.77476551  0.31059937
   0.77778000  0.88889000  0.15999000
   0.00000000  0.00000000  0.12250000
   0.00195218  0.00157497  0.57721943
   0.11341300  0.22357101  0.27397713
   0.25462103  0.12796997  0.43186781
   0.11111000  0.22222000  0.04751000
   0.13608151  0.23959651  0.48973145
   0.00274905  0.00144516  0.34520782
   0.22222000  0.11111000  0.19748000
   0.33333000  0.00000000  0.12250000
   0.33687649  0.00126827  0.54793367
   0.44452269  0.22228944  0.27393733
   0.54933104  0.10918969  0.43909821
   0.44444000  0.22222000  0.04751000
   0.44967798  0.22423890  0.48552147
   0.33301133  0.99953011  0.35843345
   0.55556000  0.11111000  0.19748000
   0.66667000  0.00000000  0.12250000
   0.66829942  0.00065952  0.54864518
   0.77585624  0.22119448  0.27422752
   0.86318218  0.10210175  0.42816561
   0.77778000  0.22222000  0.04751000
   0.74790880  0.20750259  0.48919107
   0.66085450  0.99671855  0.35758891
   0.88889000  0.11111000  0.19748000
   0.00000000  0.33333000  0.12250000
   0.00099848  0.33262732  0.57184084
   0.11340471  0.55701688  0.27398761
   0.24950685  0.45895601  0.43196338
   0.11111000  0.55556000  0.04751000
   0.13707566  0.57004609  0.48843022
   0.00358505  0.33487777  0.34840350
   0.22222000  0.44444000  0.19748000
   0.33333000  0.33333000  0.12250000
   0.34042732  0.33634229  0.54771938
   0.44456468  0.55587334  0.27395675
   0.54978987  0.44057238  0.43902413
   0.44444000  0.55556000  0.04751000
   0.44879039  0.55901132  0.48516562
   0.33253182  0.33327905  0.35888449
   0.55556000  0.44444000  0.19748000
   0.66667000  0.33333000  0.12250000
   0.66637782  0.33364625  0.54825294
   0.77614291  0.55484350  0.27429891
   0.86625078  0.43448322  0.42942946
   0.77778000  0.55556000  0.04751000
   0.74980876  0.54156017  0.48868259
   0.66168005  0.33054920  0.35765952
   0.88889000  0.44444000  0.19748000
   0.00000000  0.66667000  0.12250000
   0.00033877  0.66745449  0.57059140
   0.11312769  0.88946072  0.27406538
   0.24755207  0.78995202  0.43218105
   0.11111000  0.88889000  0.04751000
   0.13837236  0.89650462  0.48908846
   0.00388260  0.66895929  0.34919145
   0.22222000  0.77778000  0.19748000
   0.33333000  0.66667000  0.12250000
   0.33576041  0.66831034  0.54612232
   0.44452174  0.88866737  0.27390094
   0.54840224  0.77377398  0.43866342
   0.44444000  0.88889000  0.04751000
   0.44900697  0.89082090  0.48465563
   0.33350151  0.66690916  0.36045148
   0.55556000  0.77778000  0.19748000