       N       E                     dE             d eps       ncg     rms          rms(c)
DAV:   1     0.114385761943E+05    0.11439E+05   -0.30524E+05  7680   0.160E+03
DAV:   2     0.297140994006E+04   -0.84672E+04   -0.74261E+04  8832   0.429E+02
DAV:   3    -0.347369347923E+03   -0.33188E+04   -0.31683E+04 10704   0.243E+02
DAV:   4    -0.863765036867E+03   -0.51640E+03   -0.50085E+03 11568   0.996E+01
DAV:   5    -0.892373097845E+03   -0.28608E+02   -0.28270E+02 12912   0.291E+01    0.146E+02
DAV:   6    -0.162973563223E+04   -0.73736E+03   -0.12666E+04 13056   0.894E+01    0.638E+02
DAV:   7    -0.114552147914E+04    0.48421E+03   -0.12869E+03 12240   0.858E+01    0.427E+02
DAV:   8    -0.146524853554E+04   -0.31973E+03   -0.20585E+03 12864   0.822E+01    0.515E+02
DAV:   9    -0.104109809057E+04    0.42415E+03   -0.24036E+03 12096   0.163E+02    0.396E+02
DAV:  10    -0.774255085914E+03    0.26684E+03   -0.17627E+03 13008   0.696E+01    0.192E+02
DAV:  11    -0.748959523060E+03    0.25296E+02   -0.16510E+03 13008   0.993E+01    0.263E+02
DAV:  12    -0.729434527873E+03    0.19525E+02   -0.12509E+03 12912   0.123E+02    0.201E+02
DAV:  13    -0.703867961707E+03    0.25567E+02   -0.53334E+02 11184   0.950E+01    0.163E+02
DAV:  14    -0.687797611454E+03    0.16070E+02   -0.10830E+02 10656   0.793E+01    0.122E+02
DAV:  15    -0.658392516560E+03    0.29405E+02   -0.13091E+02 10992   0.479E+01    0.114E+02
DAV:  16    -0.655241642005E+03    0.31509E+01   -0.21970E+02 10560   0.432E+01    0.767E+01
DAV:  17    -0.645679054201E+03    0.95626E+01   -0.62328E+01 12576   0.946E+00    0.709E+01
DAV:  18    -0.651849798810E+03   -0.61707E+01   -0.10057E+02 12096   0.117E+01    0.723E+01
DAV:  19    -0.653710625887E+03   -0.18608E+01   -0.16581E+02 12096   0.105E+01    0.740E+01
DAV:  20    -0.645129287332E+03    0.85813E+01   -0.17852E+02 12720   0.913E+00    0.605E+01
DAV:  21    -0.633457171336E+03    0.11672E+02   -0.48964E+01 12912   0.103E+01    0.550E+01
DAV:  22    -0.629981506503E+03    0.34757E+01   -0.92922E+01 11232   0.658E+00    0.522E+01
DAV:  23    -0.622664969977E+03    0.73165E+01   -0.35539E+01 12000   0.474E+00    0.409E+01
DAV:  24    -0.620947352468E+03    0.17176E+01   -0.34208E+01 12912   0.398E+00    0.382E+01
DAV:  25    -0.622671926410E+03   -0.17246E+01   -0.14122E+01 12096   0.375E+00    0.349E+01
DAV:  26    -0.623067333611E+03   -0.39541E+00   -0.51499E+00 11328   0.260E+00    0.326E+01
DAV:  27    -0.624495158822E+03   -0.14278E+01   -0.10811E+01 10848   0.432E+00    0.322E+01
DAV:  28    -0.626480982377E+03   -0.19858E+01   -0.15751E+01 10704   0.483E+00    0.310E+01
DAV:  29    -0.628510011693E+03   -0.20290E+01   -0.36666E+00 10944   0.324E+00    0.297E+01
DAV:  30    -0.628895353824E+03   -0.38534E+00   -0.69590E+00 12096   0.371E+00    0.287E+01
DAV:  31    -0.629914343757E+03   -0.10190E+01   -0.53057E+00 11040   0.314E+00    0.258E+01
DAV:  32    -0.630925737564E+03   -0.10114E+01   -0.20793E+00 11040   0.260E+00    0.237E+01
DAV:  33    -0.632116445255E+03   -0.11907E+01   -0.39459E+00 11424   0.359E+00    0.217E+01
DAV:  34    -0.634089118777E+03   -0.19727E+01   -0.36988E+00 10992   0.267E+00    0.217E+01
DAV:  35    -0.634602685781E+03   -0.51357E+00   -0.94215E-01 11808   0.151E+00    0.204E+01
DAV:  36    -0.634767729934E+03   -0.16504E+00   -0.50723E-01 11520   0.151E+00    0.191E+01
DAV:  37    -0.635868068658E+03   -0.11003E+01   -0.23146E+00 11808   0.272E+00    0.191E+01
DAV:  38    -0.637654920410E+03   -0.17869E+01   -0.52337E+00 11088   0.404E+00    0.158E+01
DAV:  39    -0.638942432307E+03   -0.12875E+01   -0.14600E+00 10752   0.217E+00    0.155E+01
DAV:  40    -0.639452661416E+03   -0.51023E+00   -0.98835E-01 11520   0.125E+00    0.146E+01
DAV:  41    -0.639716734953E+03   -0.26407E+00   -0.26471E-01 10896   0.798E-01    0.141E+01
DAV:  42    -0.639791436994E+03   -0.74702E-01   -0.69535E-01 11232   0.143E+00    0.144E+01
DAV:  43    -0.639912655905E+03   -0.12122E+00   -0.21533E-01 10704   0.888E-01    0.138E+01
DAV:  44    -0.640470673429E+03   -0.55802E+00   -0.75048E-01 11088   0.131E+00    0.135E+01
DAV:  45    -0.641749780181E+03   -0.12791E+01   -0.12701E+00 10560   0.175E+00    0.124E+01
DAV:  46    -0.642628501311E+03   -0.87872E+00   -0.71121E-01 10944   0.138E+00    0.121E+01
DAV:  47    -0.642675336982E+03   -0.46836E-01   -0.51636E-02 10416   0.429E-01    0.120E+01
DAV:  48    -0.642795595305E+03   -0.12026E+00   -0.30729E-02 12144   0.259E-01    0.120E+01
DAV:  49    -0.642776894515E+03    0.18701E-01   -0.31547E-03 10944   0.104E-01    0.120E+01
DAV:  50    -0.642788732652E+03   -0.11838E-01   -0.14889E-02 12240   0.226E-01    0.120E+01
DAV:  51    -0.644240422378E+03   -0.14517E+01   -0.76328E+00 11808   0.538E+00    0.134E+01
DAV:  52    -0.644080980377E+03    0.15944E+00   -0.15156E+00 11376   0.229E+00    0.146E+01
DAV:  53    -0.643942825511E+03    0.13815E+00   -0.67269E-01 11904   0.142E+00    0.112E+01
DAV:  54    -0.644162429835E+03   -0.21960E+00   -0.19051E+00 11520   0.251E+00    0.101E+01
DAV:  55    -0.644604777601E+03   -0.44235E+00   -0.97079E-01 11904   0.173E+00    0.809E+00
DAV:  56    -0.645600523483E+03   -0.99575E+00   -0.31220E+00 11376   0.402E+00    0.114E+01
DAV:  57    -0.645701067261E+03   -0.10054E+00   -0.10940E+00 11184   0.152E+00    0.120E+01
DAV:  58    -0.645873389142E+03   -0.17232E+00   -0.33735E-01 12432   0.757E-01    0.123E+01
DAV:  59    -0.645886059547E+03   -0.12670E-01   -0.26077E-02 11712   0.267E-01    0.123E+01
DAV:  60    -0.646004803687E+03   -0.11874E+00   -0.13050E-01 10752   0.481E-01    0.118E+01
DAV:  61    -0.645747333232E+03    0.25747E+00   -0.18449E+00 10896   0.205E+00    0.126E+01
DAV:  62    -0.645475276122E+03    0.27206E+00   -0.47414E-01 10992   0.976E-01    0.125E+01
DAV:  63    -0.645576301784E+03   -0.10103E+00   -0.14048E-01 10752   0.580E-01    0.133E+01
DAV:  64    -0.645614286329E+03   -0.37985E-01   -0.14070E-01 11376   0.518E-01    0.118E+01
DAV:  65    -0.645388578031E+03    0.22571E+00   -0.60931E-01 11520   0.118E+00    0.104E+01
DAV:  66    -0.645130709461E+03    0.25787E+00   -0.16232E+00 11712   0.205E+00    0.103E+01
DAV:  67    -0.645020581007E+03    0.11013E+00   -0.31742E-01 10176   0.911E-01    0.989E+00
DAV:  68    -0.644851338725E+03    0.16924E+00   -0.20881E-01 11520   0.729E-01    0.947E+00
DAV:  69    -0.644793415380E+03    0.57923E-01   -0.26931E-01 11136   0.823E-01    0.896E+00
DAV:  70    -0.644811361604E+03   -0.17946E-01   -0.47713E-01 11520   0.119E+00    0.847E+00
DAV:  71    -0.645258927283E+03   -0.44757E+00   -0.10403E+00 11232   0.112E+00    0.129E+01
DAV:  72    -0.645254211319E+03    0.47160E-02   -0.59625E-02  9840   0.468E-01    0.130E+01
DAV:  73    -0.645225930214E+03    0.28281E-01   -0.56199E-03 13728   0.128E-01    0.129E+01
DAV:  74    -0.645224146253E+03    0.17840E-02   -0.10407E-03 12144   0.487E-02    0.129E+01
DAV:  75    -0.645218255752E+03    0.58905E-02   -0.69147E-04 11040   0.471E-02    0.128E+01
DAV:  76    -0.645340020621E+03   -0.12176E+00   -0.11260E-01 11664   0.585E-01    0.110E+01
DAV:  77    -0.645249688879E+03    0.90332E-01   -0.36334E-01 11952   0.662E-01    0.750E+00
DAV:  78    -0.645371296295E+03   -0.12161E+00   -0.13520E-01  9744   0.591E-01    0.711E+00
DAV:  79    -0.645593974135E+03   -0.22268E+00   -0.24739E-01 11232   0.849E-01    0.650E+00
DAV:  80    -0.645676216264E+03   -0.82242E-01   -0.25785E-01 11568   0.691E-01    0.546E+00
DAV:  81    -0.645775413393E+03   -0.99197E-01   -0.25664E-01 11472   0.822E-01    0.522E+00
DAV:  82    -0.645833885197E+03   -0.58472E-01   -0.10945E-01 10272   0.485E-01    0.706E+00
DAV:  83    -0.645807004282E+03    0.26881E-01   -0.13449E-02  9840   0.232E-01    0.666E+00
DAV:  84    -0.645817837939E+03   -0.10834E-01   -0.16473E-02 12768   0.948E-02    0.786E+00
DAV:  85    -0.645846543937E+03   -0.28706E-01   -0.13319E-01 11088   0.168E-01    0.101E+01
DAV:  86    -0.645837880815E+03    0.86631E-02   -0.53050E-02 11664   0.426E-01    0.102E+01
DAV:  87    -0.645914024752E+03   -0.76144E-01   -0.32139E-02 10752   0.213E-01    0.106E+01
DAV:  88    -0.645913126870E+03    0.89788E-03   -0.16657E-02 11568   0.169E-01    0.105E+01
DAV:  89    -0.645901078223E+03    0.12049E-01   -0.90942E-03 10992   0.136E-01    0.104E+01
DAV:  90    -0.645907527198E+03   -0.64490E-02   -0.10153E-02 10944   0.130E-01
   1 F= -.64590753E+03 E0= -.64587553E+03  d E =-.645908E+03  mag=    15.0028
       N       E                     dE             d eps       ncg     rms          rms(c)
DAV:   1    -0.645845500456E+03    0.55578E-01   -0.17992E+03  7968   0.626E+01    0.142E+01
DAV:   2    -0.653137679278E+03   -0.72922E+01   -0.79834E+01 10512   0.141E+01    0.292E+01
DAV:   3    -0.651500325694E+03    0.16374E+01   -0.46342E+01 13008   0.719E+00    0.140E+01
DAV:   4    -0.651463320822E+03    0.37005E-01   -0.87152E+00 11520   0.396E+00    0.942E+00
DAV:   5    -0.651730132873E+03   -0.26681E+00   -0.29043E+00 13248   0.225E+00    0.101E+01
DAV:   6    -0.651692965699E+03    0.37167E-01   -0.72062E-01 11472   0.144E+00    0.897E+00
DAV:   7    -0.651844575920E+03   -0.15161E+00   -0.21211E+00 12144   0.192E+00    0.780E+00
DAV:   8    -0.651847803446E+03   -0.32275E-02   -0.11348E+00 10992   0.157E+00    0.663E+00
DAV:   9    -0.652046295776E+03   -0.19849E+00   -0.14366E+00 11712   0.125E+00    0.732E+00
DAV:  10    -0.651998840643E+03    0.47455E-01   -0.69947E-01 12240   0.102E+00    0.427E+00
DAV:  11    -0.652073266235E+03   -0.74426E-01   -0.45446E-01 11472   0.103E+00    0.371E+00
DAV:  12    -0.652113185819E+03   -0.39920E-01   -0.20386E-01 12048   0.787E-01    0.189E+00
DAV:  13    -0.652149646604E+03   -0.36461E-01   -0.13397E-01 11136   0.469E-01    0.283E+00
DAV:  14    -0.652180384515E+03   -0.30738E-01   -0.85350E-02 10800   0.342E-01    0.376E+00
DAV:  15    -0.652177382967E+03    0.30015E-02   -0.25404E-02 11376   0.259E-01    0.368E+00
DAV:  16    -0.652176581527E+03    0.80144E-03   -0.39794E-03 10512   0.110E-01    0.398E+00
DAV:  17    -0.652192742807E+03   -0.16161E-01   -0.13827E-01 11520   0.257E-01    0.257E+00
DAV:  18    -0.652223835599E+03   -0.31093E-01   -0.74782E-02 11040   0.337E-01    0.199E+00
DAV:  19    -0.652242493227E+03   -0.18658E-01   -0.41996E-02 10560   0.280E-01    0.120E+00
DAV:  20    -0.652269220537E+03   -0.26727E-01   -0.21866E-02 11280   0.219E-01    0.845E-01
DAV:  21    -0.652288713956E+03   -0.19493E-01   -0.10702E-02 11280   0.160E-01    0.506E-01
DAV:  22    -0.652302673187E+03   -0.13959E-01   -0.66094E-03 11856   0.125E-01    0.640E-01
DAV:  23    -0.652315442648E+03   -0.12769E-01   -0.43266E-03 11088   0.944E-02    0.842E-01
DAV:  24    -0.652326097764E+03   -0.10655E-01   -0.20688E-03 10704   0.708E-02    0.794E-01
DAV:  25    -0.652341395423E+03   -0.15298E-01   -0.23393E-03 10944   0.696E-02    0.615E-01
DAV:  26    -0.652360360547E+03   -0.18965E-01   -0.32603E-03 10752   0.877E-02    0.405E-01
DAV:  27    -0.652364789411E+03   -0.44289E-02   -0.11492E-03 12240   0.570E-02    0.259E-01
DAV:  28    -0.652370228648E+03   -0.54392E-02   -0.97983E-04 11040   0.429E-02    0.166E-01
DAV:  29    -0.652377228340E+03   -0.69997E-02   -0.88535E-04 11472   0.447E-02    0.249E-01
DAV:  30    -0.652380297337E+03   -0.30690E-02   -0.33105E-04 10608   0.334E-02    0.241E-01
DAV:  31    -0.652383506507E+03   -0.32092E-02   -0.28826E-04 10848   0.238E-02    0.206E-01
DAV:  32    -0.652386768451E+03   -0.32619E-02   -0.25203E-04 10944   0.248E-02    0.153E-01
DAV:  33    -0.652392756411E+03   -0.59880E-02   -0.38946E-04 10176   0.274E-02    0.135E-01
DAV:  34    -0.652397641528E+03   -0.48851E-02   -0.31985E-04  9792   0.242E-02    0.123E-01
DAV:  35    -0.652399075577E+03   -0.14340E-02   -0.10793E-04 10224   0.156E-02    0.875E-02
DAV:  36    -0.652399489274E+03   -0.41370E-03   -0.49016E-05 10992   0.928E-03    0.598E-02
DAV:  37    -0.652399993712E+03   -0.50444E-03   -0.73033E-05 10368   0.984E-03    0.795E-02
DAV:  38    -0.652400107502E+03   -0.11379E-03   -0.14924E-05 10560   0.637E-03    0.847E-02
DAV:  39    -0.652400180605E+03   -0.73103E-04   -0.96519E-06 10128   0.425E-03    0.760E-02
DAV:  40    -0.652400209770E+03   -0.29166E-04   -0.83662E-06  8544   0.334E-03    0.698E-02
DAV:  41    -0.652400182563E+03    0.27207E-04   -0.29522E-05  9360   0.576E-03    0.698E-02
DAV:  42    -0.652400184530E+03   -0.19665E-05   -0.50836E-05  9840   0.718E-03    0.687E-02
DAV:  43    -0.652400198589E+03   -0.14059E-04   -0.10066E-04 10560   0.940E-03    0.594E-02
DAV:  44    -0.652400250316E+03   -0.51728E-04   -0.67527E-04  9936   0.225E-02    0.594E-02
DAV:  45    -0.652400310793E+03   -0.60477E-04   -0.72352E-04 11184   0.251E-02    0.682E-02
DAV:  46    -0.652400373941E+03   -0.63148E-04   -0.65060E-05  9264   0.129E-02    0.689E-02
DAV:  47    -0.652400318972E+03    0.54969E-04   -0.11614E-04 10128   0.116E-02    0.590E-02
DAV:  48    -0.652400528679E+03   -0.20971E-03   -0.44396E-05 11280   0.103E-02    0.513E-02
DAV:  49    -0.652400611078E+03   -0.82399E-04   -0.98937E-04 10128   0.303E-02    0.757E-02
DAV:  50    -0.652400638021E+03   -0.26943E-04   -0.50966E-04 10944   0.224E-02    0.457E-02
DAV:  51    -0.652400669888E+03   -0.31867E-04   -0.24726E-04 11232   0.149E-02    0.403E-02
DAV:  52    -0.652400688585E+03   -0.18697E-04   -0.56396E-05 10224   0.822E-03    0.416E-02
DAV:  53    -0.652400691940E+03   -0.33542E-05   -0.38149E-05  9456   0.719E-03    0.392E-02
DAV:  54    -0.652400674401E+03    0.17539E-04   -0.88021E-05 10176   0.913E-03    0.370E-02
DAV:  55    -0.652400666417E+03    0.79837E-05   -0.72083E-05 10608   0.769E-03    0.332E-02
DAV:  56    -0.652400661713E+03    0.47042E-05   -0.59416E-05  9888   0.658E-03    0.309E-02
DAV:  57    -0.652400658114E+03    0.35989E-05   -0.12548E-04 10656   0.991E-03    0.298E-02
DAV:  58    -0.652400662887E+03   -0.47726E-05   -0.14069E-04 10704   0.106E-02    0.299E-02
DAV:  59    -0.652400674226E+03   -0.11339E-04   -0.47060E-05 10464   0.677E-03    0.259E-02
DAV:  60    -0.652400680183E+03   -0.59568E-05   -0.84841E-06  8976   0.347E-03    0.243E-02
DAV:  61    -0.652400679702E+03    0.48053E-06   -0.16110E-05  8496   0.370E-03    0.242E-02
DAV:  62    -0.652400678411E+03    0.12914E-05   -0.31920E-05  9888   0.518E-03    0.238E-02
DAV:  63    -0.652400677833E+03    0.57789E-06   -0.16730E-05  8928   0.393E-03    0.256E-02
DAV:  64    -0.652400679493E+03   -0.16604E-05   -0.58673E-06  7296   0.304E-03    0.251E-02
DAV:  65    -0.652400679429E+03    0.64567E-07   -0.53039E-07  5184   0.102E-03
   2 F= -.65240068E+03 E0= -.65236330E+03  d E =-.649315E+01  mag=    13.0511
       N       E                     dE             d eps       ncg     rms          rms(c)
DAV:   1    -0.645605872956E+03    0.67948E+01   -0.31679E+03  8208   0.834E+01    0.210E+01
DAV:   2    -0.659772830636E+03   -0.14167E+02   -0.15179E+02 10464   0.195E+01    0.392E+01
DAV:   3    -0.659191645654E+03    0.58118E+00   -0.13370E+02 13296   0.105E+01    0.248E+01
DAV:   4    -0.658029877884E+03    0.11618E+01   -0.14379E+01 12960   0.542E+00    0.147E+01
DAV:   5    -0.657963218032E+03    0.66660E-01   -0.40616E+00 13104   0.398E+00    0.119E+01
DAV:   6    -0.659720044625E+03   -0.17568E+01   -0.14291E+01 11472   0.497E+00    0.253E+01
DAV:   7    -0.657922936738E+03    0.17971E+01   -0.12455E+01 11808   0.444E+00    0.103E+01
DAV:   8    -0.658287397952E+03   -0.36446E+00   -0.82857E+00 12000   0.326E+00    0.190E+01
DAV:   9    -0.658068254520E+03    0.21914E+00   -0.58973E+00 12384   0.213E+00    0.115E+01
DAV:  10    -0.658039811096E+03    0.28443E-01   -0.61772E-01 10800   0.130E+00    0.970E+00
DAV:  11    -0.657888581790E+03    0.15123E+00   -0.13289E+00 12384   0.115E+00    0.727E+00
DAV:  12    -0.657895441504E+03   -0.68597E-02   -0.59662E-01 11856   0.962E-01    0.429E+00
DAV:  13    -0.657962805921E+03   -0.67364E-01   -0.43105E-01 11280   0.901E-01    0.341E+00
DAV:  14    -0.658000007653E+03   -0.37202E-01   -0.21616E-01 12096   0.722E-01    0.318E+00
DAV:  15    -0.658017198541E+03   -0.17191E-01   -0.72158E-02 11328   0.440E-01    0.459E+00
DAV:  16    -0.658009961684E+03    0.72369E-02   -0.10329E-02 11136   0.180E-01    0.436E+00
DAV:  17    -0.658019337854E+03   -0.93762E-02   -0.65514E-02 11472   0.305E-01    0.506E+00
DAV:  18    -0.658019745286E+03   -0.40743E-03   -0.96621E-03 11472   0.170E-01    0.568E+00
DAV:  19    -0.658015173480E+03    0.45718E-02   -0.12251E-02 10944   0.179E-01    0.502E+00
DAV:  20    -0.658011870308E+03    0.33032E-02   -0.40496E-03 10944   0.101E-01    0.456E+00
DAV:  21    -0.657996569931E+03    0.15300E-01   -0.78858E-02 11232   0.405E-01    0.274E+00
DAV:  22    -0.657992787743E+03    0.37822E-02   -0.16454E-01 11424   0.548E-01    0.366E+00
DAV:  23    -0.657991934241E+03    0.85350E-03   -0.55343E-02 11424   0.407E-01    0.278E+00
DAV:  24    -0.657990775936E+03    0.11583E-02   -0.50270E-02 11424   0.323E-01    0.199E+00
DAV:  25    -0.658006412848E+03   -0.15637E-01   -0.42337E-02 11184   0.278E-01    0.111E+00
DAV:  26    -0.658022824910E+03   -0.16412E-01   -0.24154E-02 11760   0.208E-01    0.986E-01
DAV:  27    -0.658029857950E+03   -0.70330E-02   -0.69669E-03 11856   0.138E-01    0.118E+00
DAV:  28    -0.658036749434E+03   -0.68915E-02   -0.65811E-03 10944   0.131E-01    0.751E-01
DAV:  29    -0.658048284276E+03   -0.11535E-01   -0.15192E-02 11136   0.173E-01    0.118E+00
DAV:  30    -0.658057554420E+03   -0.92701E-02   -0.11355E-02 11424   0.159E-01    0.103E+00
DAV:  31    -0.658061476408E+03   -0.39220E-02   -0.14370E-02 11088   0.184E-01    0.942E-01
DAV:  32    -0.658068787845E+03   -0.73114E-02   -0.55295E-03 10416   0.125E-01    0.677E-01
DAV:  33    -0.658080856520E+03   -0.12069E-01   -0.79886E-03 11136   0.114E-01    0.396E-01
DAV:  34    -0.658088929344E+03   -0.80728E-02   -0.36718E-03 11616   0.887E-02    0.288E-01
DAV:  35    -0.658095226708E+03   -0.62974E-02   -0.31645E-03 10992   0.752E-02    0.233E-01
DAV:  36    -0.658100005593E+03   -0.47789E-02   -0.29173E-03 11088   0.715E-02    0.299E-01
DAV:  37    -0.658104326156E+03   -0.43206E-02   -0.23706E-03 10992   0.588E-02    0.415E-01
DAV:  38    -0.658107324953E+03   -0.29988E-02   -0.16819E-03 11088   0.498E-02    0.317E-01
DAV:  39    -0.658110630818E+03   -0.33059E-02   -0.22437E-03 10848   0.587E-02    0.181E-01
DAV:  40    -0.658112958764E+03   -0.23279E-02   -0.14274E-03 11040   0.476E-02    0.247E-01
DAV:  41    -0.658114415205E+03   -0.14564E-02   -0.91482E-04 11088   0.418E-02    0.278E-01
DAV:  42    -0.658114507176E+03   -0.91971E-04   -0.39913E-04 11040   0.316E-02    0.168E-01
DAV:  43    -0.658114977913E+03   -0.47074E-03   -0.20516E-04 11568   0.213E-02    0.808E-02
DAV:  44    -0.658115805860E+03   -0.82795E-03   -0.17227E-04 10656   0.169E-02    0.805E-02
DAV:  45    -0.658116305438E+03   -0.49958E-03   -0.10088E-04 10896   0.151E-02    0.540E-02
DAV:  46    -0.658116674056E+03   -0.36862E-03   -0.93674E-05 10512   0.124E-02    0.326E-02
DAV:  47    -0.658116968451E+03   -0.29439E-03   -0.11476E-04 10224   0.115E-02    0.354E-02
DAV:  48    -0.658117065531E+03   -0.97080E-04   -0.43049E-05 10752   0.766E-03    0.331E-02
DAV:  49    -0.658117112202E+03   -0.46671E-04   -0.34632E-05 10704   0.676E-03    0.213E-02
DAV:  50    -0.658117134068E+03   -0.21865E-04   -0.17445E-05 10800   0.555E-03    0.142E-02
DAV:  51    -0.658117149144E+03   -0.15077E-04   -0.47980E-06  8064   0.334E-03    0.118E-02
DAV:  52    -0.658117158362E+03   -0.92175E-05   -0.61967E-06  9168   0.326E-03    0.116E-02
DAV:  53    -0.658117163887E+03   -0.55253E-05   -0.38250E-06  7440   0.246E-03    0.929E-03
DAV:  54    -0.658117167391E+03   -0.35037E-05   -0.24606E-06  6528   0.200E-03    0.625E-03
DAV:  55    -0.658117170408E+03   -0.30170E-05   -0.51103E-06  8400   0.258E-03    0.622E-03
DAV:  56    -0.658117171432E+03   -0.10243E-05   -0.26477E-06  6816   0.208E-03    0.551E-03
DAV:  57    -0.658117171525E+03   -0.93147E-07   -0.18779E-06  6096   0.193E-03
   3 F= -.65811717E+03 E0= -.65808336E+03  d E =-.122096E+02  mag=    10.1551
       N       E                     dE             d eps       ncg     rms          rms(c)
DAV:   1    -0.518344975399E+03    0.13977E+03   -0.12280E+04  8400   0.165E+02    0.908E+01
DAV:   2    -0.945232378451E+03   -0.42689E+03   -0.32305E+03 12816   0.839E+01    0.589E+02
DAV:   3    -0.129204768644E+04   -0.34682E+03   -0.76420E+02 12912   0.404E+01    0.733E+02
DAV:   4    -0.146952701273E+04   -0.17748E+03   -0.70391E+02  9936   0.343E+01    0.693E+02
DAV:   5    -0.109665859633E+04    0.37287E+03   -0.40495E+02 11280   0.466E+01    0.608E+02
DAV:   6    -0.900449916254E+03    0.19621E+03   -0.10845E+03 11616   0.882E+01    0.554E+02
DAV:   7    -0.789778766768E+03    0.11067E+03   -0.65738E+02 10752   0.622E+01    0.483E+02
DAV:   8    -0.698523932218E+03    0.91255E+02   -0.20847E+02 11520   0.434E+01    0.438E+02
DAV:   9    -0.699219566539E+03   -0.69563E+00   -0.14689E+02 12528   0.145E+01    0.431E+02
DAV:  10    -0.701311852993E+03   -0.20923E+01   -0.13520E+02 11952   0.160E+01    0.434E+02
DAV:  11    -0.667977746890E+03    0.33334E+02   -0.11300E+02 11712   0.136E+01    0.400E+02
DAV:  12    -0.636418299565E+03    0.31559E+02   -0.91397E+01 11808   0.924E+00    0.328E+02
DAV:  13    -0.615743620196E+03    0.20675E+02   -0.94182E+01 12336   0.161E+01    0.295E+02
DAV:  14    -0.602517337784E+03    0.13226E+02   -0.15736E+02 12960   0.149E+01    0.201E+02
DAV:  15    -0.617432037199E+03   -0.14915E+02   -0.27425E+02 12624   0.271E+01    0.197E+02
DAV:  16    -0.614733486483E+03    0.26986E+01   -0.94800E+01 11904   0.115E+01    0.194E+02
DAV:  17    -0.615817763895E+03   -0.10843E+01   -0.59045E+01 12768   0.591E+00    0.194E+02
DAV:  18    -0.627858746165E+03   -0.12041E+02   -0.11470E+02 13248   0.810E+00    0.198E+02
DAV:  19    -0.648041524002E+03   -0.20183E+02   -0.58119E+01 12336   0.101E+01    0.208E+02
DAV:  20    -0.654167186481E+03   -0.61257E+01   -0.72644E+01 13200   0.136E+01    0.211E+02
DAV:  21    -0.653107424134E+03    0.10598E+01   -0.20013E+01 11856   0.683E+00    0.211E+02
DAV:  22    -0.659758161203E+03   -0.66507E+01   -0.13656E+01 12912   0.504E+00    0.210E+02
DAV:  23    -0.694271153971E+03   -0.34513E+02   -0.45033E+01 11472   0.138E+01    0.217E+02
DAV:  24    -0.695286417243E+03   -0.10153E+01   -0.24094E+00 11328   0.276E+00    0.217E+02
DAV:  25    -0.695816107459E+03   -0.52969E+00   -0.11531E+01 12192   0.495E+00    0.216E+02
DAV:  26    -0.697207035378E+03   -0.13909E+01   -0.15617E+00 12384   0.177E+00    0.217E+02
DAV:  27    -0.702732562267E+03   -0.55255E+01   -0.25916E+01 11952   0.359E+00    0.233E+02
DAV:  28    -0.698652969798E+03    0.40796E+01   -0.37723E+01 11760   0.416E+00    0.217E+02
DAV:  29    -0.698501459127E+03    0.15151E+00   -0.19105E+00 11424   0.100E+00    0.218E+02
DAV:  30    -0.698493350547E+03    0.81086E-02   -0.88919E-02 13104   0.390E-01    0.218E+02
DAV:  31    -0.699761838064E+03   -0.12685E+01   -0.29533E+00 12768   0.149E+00    0.218E+02
DAV:  32    -0.700535211005E+03   -0.77337E+00   -0.24168E+00 12960   0.113E+00    0.218E+02
DAV:  33    -0.700685320343E+03   -0.15011E+00   -0.15856E+00 12240   0.102E+00    0.218E+02
DAV:  34    -0.701018586754E+03   -0.33327E+00   -0.68658E-01 14160   0.623E-01    0.218E+02
DAV:  35    -0.701493009117E+03   -0.47442E+00   -0.28943E+00 13056   0.135E+00    0.218E+02
DAV:  36    -0.702112498398E+03   -0.61949E+00   -0.23622E-01 11760   0.773E-01    0.218E+02
DAV:  37    -0.702623484326E+03   -0.51099E+00   -0.14427E+00 13104   0.765E-01    0.219E+02
DAV:  38    -0.702535092008E+03    0.88392E-01   -0.16559E-01 11136   0.452E-01    0.218E+02
DAV:  39    -0.703377188082E+03   -0.84210E+00   -0.20702E+00 13344   0.176E+00    0.218E+02
DAV:  40    -0.703240332863E+03    0.13686E+00   -0.73027E+00 12528   0.357E+00    0.219E+02
DAV:  41    -0.703328350787E+03   -0.88018E-01   -0.16163E-01 10320   0.768E-01    0.219E+02
DAV:  42    -0.702869494782E+03    0.45886E+00   -0.83241E-02 14256   0.472E-01    0.219E+02
DAV:  43    -0.703561986912E+03   -0.69249E+00   -0.31556E-01 12336   0.709E-01    0.219E+02
DAV:  44    -0.703780308301E+03   -0.21832E+00   -0.32007E-01 12912   0.526E-01    0.219E+02
DAV:  45    -0.703990666660E+03   -0.21036E+00   -0.21307E-02 12096   0.217E-01    0.219E+02
DAV:  46    -0.705146411125E+03   -0.11557E+01   -0.59158E-01 13200   0.889E-01    0.219E+02
DAV:  47    -0.919352127429E+03   -0.21421E+03   -0.28644E+03 13584   0.985E+01    0.437E+02
DAV:  48    -0.914863421866E+03    0.44887E+01   -0.10828E+03 11856   0.826E+01    0.482E+02
DAV:  49    -0.861584900057E+03    0.53279E+02   -0.27527E+02 12624   0.330E+01    0.432E+02
DAV:  50    -0.615167330365E+03    0.24642E+03   -0.56263E+02 11616   0.739E+01    0.304E+02
DAV:  51    -0.578859161323E+03    0.36308E+02   -0.26640E+02 11040   0.428E+01    0.287E+02
DAV:  52    -0.779123601469E+03   -0.20026E+03   -0.35788E+03 12480   0.180E+02    0.602E+02
DAV:  53    -0.738826243650E+03    0.40297E+02   -0.48927E+02 11328   0.620E+01    0.550E+02
DAV:  54    -0.729778556469E+03    0.90477E+01   -0.78597E+01 11904   0.159E+01    0.570E+02
DAV:  55    -0.740571496741E+03   -0.10793E+02   -0.82459E+01 11568   0.157E+01    0.539E+02
DAV:  56    -0.598792320116E+03    0.14178E+03   -0.28043E+02 11472   0.225E+01    0.447E+02
DAV:  57    -0.752903270012E+03   -0.15411E+03   -0.11930E+03 12960   0.585E+01    0.534E+02
DAV:  58    -0.545292081196E+03    0.20761E+03   -0.12058E+03 11568   0.851E+01    0.456E+02
DAV:  59    -0.400883752054E+03    0.14441E+03   -0.50342E+02 11520   0.440E+01    0.510E+02
DAV:  60    -0.557472942529E+03   -0.15659E+03   -0.34418E+02 11424   0.297E+01    0.485E+02
DAV:  61    -0.483766095267E+03    0.73707E+02   -0.30316E+01 12384   0.211E+01    0.467E+02
DAV:  62    -0.317305894768E+03    0.16646E+03   -0.32984E+02 10704   0.355E+01    0.439E+02
DAV:  63    -0.334459270535E+03   -0.17153E+02   -0.47319E+02 12864   0.356E+01    0.447E+02
DAV:  64    -0.341714982742E+03   -0.72557E+01   -0.12265E+02 11136   0.214E+01    0.458E+02
DAV:  65    -0.338335948106E+03    0.33790E+01   -0.58730E+00 11616   0.447E+00    0.456E+02
DAV:  66    -0.341286478645E+03   -0.29505E+01   -0.24807E+00 13056   0.304E+00    0.453E+02
DAV:  67    -0.613060745416E+03   -0.27177E+03   -0.10076E+03 12720   0.868E+01    0.304E+02
DAV:  68    -0.538247361787E+03    0.74813E+02   -0.38818E+02 10656   0.523E+01    0.292E+02
DAV:  69    -0.538364498221E+03   -0.11714E+00   -0.18051E+02 13248   0.258E+01    0.288E+02
DAV:  70    -0.486244580492E+03    0.52120E+02   -0.19965E+02 12336   0.195E+01    0.123E+03
DAV:  71    -0.475114223834E+03    0.11130E+02   -0.21697E+01 12048   0.823E+00    0.137E+03
DAV:  72    -0.538097876565E+03   -0.62984E+02   -0.12055E+02 11376   0.224E+01    0.338E+02
DAV:  73    -0.470625584525E+03    0.67472E+02   -0.18806E+02 11904   0.263E+01    0.126E+03
DAV:  74    -0.461291142519E+03    0.93344E+01   -0.46563E+01 12240   0.114E+01    0.135E+03
DAV:  75    -0.462307708950E+03   -0.10166E+01   -0.60160E+00 11616   0.427E+00    0.136E+03
DAV:  76    -0.460446996491E+03    0.18607E+01   -0.12844E+01 11184   0.461E+00    0.136E+03
DAV:  77    -0.521193431543E+03   -0.60746E+02   -0.11748E+02 10704   0.163E+01    0.130E+03
DAV:  78    -0.515962273621E+03    0.52312E+01   -0.23090E+01 12192   0.853E+00    0.129E+03
DAV:  79    -0.505207051394E+03    0.10755E+02   -0.18482E+01 11568   0.933E+00    0.134E+03
DAV:  80    -0.507977950399E+03   -0.27709E+01   -0.41572E+01 11664   0.114E+01    0.137E+03
DAV:  81    -0.502803906699E+03    0.51740E+01   -0.29006E+01 13584   0.853E+00    0.139E+03
DAV:  82    -0.551988459833E+03   -0.49185E+02   -0.90500E+02 11376   0.371E+01    0.258E+02
DAV:  83    -0.564244103641E+03   -0.12256E+02   -0.18779E+02 12336   0.207E+01    0.225E+02
DAV:  84    -0.516689025578E+03    0.47555E+02   -0.10795E+02 11088   0.223E+01    0.206E+02
DAV:  85    -0.510974456009E+03    0.57146E+01   -0.14536E+02 11808   0.236E+01    0.202E+02
DAV:  86    -0.508813885684E+03    0.21606E+01   -0.58407E+01 11904   0.147E+01    0.187E+02
DAV:  87    -0.596483723401E+03   -0.87670E+02   -0.12301E+02 10320   0.283E+01    0.212E+02
DAV:  88    -0.592050673104E+03    0.44331E+01   -0.48606E+01 13488   0.111E+01    0.177E+02
DAV:  89    -0.586737349893E+03    0.53133E+01   -0.29393E+02 11856   0.256E+01    0.178E+02
DAV:  90    -0.587057848405E+03   -0.32050E+00   -0.39822E+01 11328   0.135E+01
   4 F= -.58705785E+03 E0= -.58703495E+03  d E =0.588497E+02  mag=     8.4442
       N       E                     dE             d eps       ncg     rms          rms(c)
DAV:   1    -0.580417612358E+03    0.63197E+01   -0.12025E+04  8064   0.159E+02    0.180E+02
DAV:   2    -0.101536586930E+04   -0.43495E+03   -0.46135E+03 12000   0.193E+02    0.290E+02
DAV:   3    -0.897029130934E+03    0.11834E+03   -0.14646E+04 13104   0.313E+02    0.261E+02
DAV:   4    -0.798456457414E+03    0.98573E+02   -0.41239E+03 12384   0.163E+02    0.145E+02
DAV:   5    -0.731803401960E+03    0.66653E+02   -0.10888E+03 11760   0.518E+01    0.108E+02
DAV:   6    -0.804179433262E+03   -0.72376E+02   -0.11982E+03 13872   0.371E+01    0.130E+02
DAV:   7    -0.796841624500E+03    0.73378E+01   -0.58191E+02 12768   0.470E+01    0.104E+02
DAV:   8    -0.834185754154E+03   -0.37344E+02   -0.69118E+02 13824   0.363E+01    0.152E+02
DAV:   9    -0.764597451652E+03    0.69588E+02   -0.66830E+02 11664   0.106E+02    0.857E+01
DAV:  10    -0.751206297300E+03    0.13391E+02   -0.18455E+02 12096   0.215E+01    0.741E+01
DAV:  11    -0.737128996833E+03    0.14077E+02   -0.16382E+02 11952   0.136E+01    0.688E+01
DAV:  12    -0.712628468481E+03    0.24501E+02   -0.10354E+02 12432   0.121E+01    0.705E+01
DAV:  13    -0.702270351398E+03    0.10358E+02   -0.99877E+01 13680   0.113E+01    0.611E+01
DAV:  14    -0.687316082364E+03    0.14954E+02   -0.38153E+01 11904   0.983E+00    0.550E+01
DAV:  15    -0.680524780862E+03    0.67913E+01   -0.34170E+01 12336   0.575E+00    0.518E+01
DAV:  16    -0.676661673444E+03    0.38631E+01   -0.10186E+01 12288   0.293E+00    0.502E+01
DAV:  17    -0.671957499559E+03    0.47042E+01   -0.95107E+00 12336   0.356E+00    0.481E+01
DAV:  18    -0.671255101860E+03    0.70240E+00   -0.82222E-01 11904   0.143E+00    0.477E+01
DAV:  19    -0.671517860695E+03   -0.26276E+00   -0.44054E-01 12672   0.102E+00    0.479E+01
DAV:  20    -0.671309984127E+03    0.20788E+00   -0.21263E-01 12192   0.531E-01    0.481E+01
DAV:  21    -0.672264922905E+03   -0.95494E+00   -0.54387E-01 11952   0.100E+00    0.476E+01
DAV:  22    -0.671924353088E+03    0.34057E+00   -0.13563E+00 11712   0.132E+00    0.473E+01
DAV:  23    -0.671122692524E+03    0.80166E+00   -0.53194E-01 10992   0.946E-01    0.468E+01
DAV:  24    -0.662807828064E+03    0.83149E+01   -0.25233E+01 12144   0.609E+00    0.450E+01
DAV:  25    -0.646299069304E+03    0.16509E+02   -0.46937E+01 12960   0.969E+00    0.400E+01
DAV:  26    -0.642119023065E+03    0.41800E+01   -0.59224E+01 10896   0.522E+00    0.321E+01
DAV:  27    -0.638791736760E+03    0.33273E+01   -0.48777E+01 12288   0.690E+00    0.420E+01
DAV:  28    -0.642053867981E+03   -0.32621E+01   -0.87100E+01 12480   0.449E+00    0.424E+01
DAV:  29    -0.642415579814E+03   -0.36171E+00   -0.69036E+01 11520   0.402E+00    0.369E+01
DAV:  30    -0.640285366429E+03    0.21302E+01   -0.26096E+01 11760   0.332E+00    0.294E+01
DAV:  31    -0.641551495146E+03   -0.12661E+01   -0.14863E+01 12096   0.295E+00    0.326E+01
DAV:  32    -0.642996381828E+03   -0.14449E+01   -0.15548E+00 10608   0.141E+00    0.308E+01
DAV:  33    -0.643031508216E+03   -0.35126E-01   -0.70237E-02 12432   0.470E-01    0.307E+01
DAV:  34    -0.643396004097E+03   -0.36450E+00   -0.18695E-01 11520   0.502E-01    0.303E+01
DAV:  35    -0.643469495386E+03   -0.73491E-01   -0.17720E-01 11376   0.349E-01    0.301E+01
DAV:  36    -0.643487412294E+03   -0.17917E-01   -0.23346E-01 11136   0.356E-01    0.307E+01
DAV:  37    -0.644099506822E+03   -0.61209E+00   -0.71632E-01 10848   0.917E-01    0.316E+01
DAV:  38    -0.644167130369E+03   -0.67624E-01   -0.74851E-02 11040   0.368E-01    0.315E+01
DAV:  39    -0.644119474815E+03    0.47656E-01   -0.15721E-01 12288   0.369E-01    0.323E+01
DAV:  40    -0.644065058972E+03    0.54416E-01   -0.50083E-01 10848   0.392E-01    0.315E+01
DAV:  41    -0.644169729857E+03   -0.10467E+00   -0.89253E-02 12240   0.290E-01    0.319E+01
DAV:  42    -0.644115698680E+03    0.54031E-01   -0.16593E-02 10944   0.145E-01    0.319E+01
DAV:  43    -0.644453905104E+03   -0.33821E+00   -0.21871E+00 11568   0.155E+00    0.295E+01
DAV:  44    -0.646615699258E+03   -0.21618E+01   -0.69295E+00 10896   0.208E+00    0.303E+01
DAV:  45    -0.647362140070E+03   -0.74644E+00   -0.19380E+00 12144   0.175E+00    0.283E+01
DAV:  46    -0.648900111423E+03   -0.15380E+01   -0.46042E+00 10800   0.201E+00    0.284E+01
DAV:  47    -0.651941213922E+03   -0.30411E+01   -0.33890E+01 11904   0.875E+00    0.344E+01
DAV:  48    -0.649931198722E+03    0.20100E+01   -0.55436E+00 12528   0.533E+00    0.309E+01
DAV:  49    -0.648256766088E+03    0.16744E+01   -0.13289E+01 11424   0.442E+00    0.295E+01
DAV:  50    -0.648010260964E+03    0.24651E+00   -0.71965E+00 11856   0.305E+00    0.284E+01
DAV:  51    -0.648280123603E+03   -0.26986E+00   -0.41937E+00 11232   0.293E+00    0.275E+01
DAV:  52    -0.649524729516E+03   -0.12446E+01   -0.23034E+01 12000   0.740E+00    0.288E+01
DAV:  53    -0.648130510809E+03    0.13942E+01   -0.11091E+01 12816   0.438E+00    0.224E+01
DAV:  54    -0.648791940162E+03   -0.66143E+00   -0.75872E+00 11904   0.342E+00    0.197E+01
DAV:  55    -0.649102476091E+03   -0.31054E+00   -0.29219E+00 12240   0.232E+00    0.177E+01
DAV:  56    -0.649135254058E+03   -0.32778E-01   -0.25525E+00 12000   0.227E+00    0.168E+01
DAV:  57    -0.646351332493E+03    0.27839E+01   -0.11798E+01 11616   0.516E+00    0.191E+01
DAV:  58    -0.644227114537E+03    0.21242E+01   -0.80980E+00 10608   0.328E+00    0.192E+01
DAV:  59    -0.646513511931E+03   -0.22864E+01   -0.21862E+00 10368   0.194E+00    0.157E+01
DAV:  60    -0.648254218577E+03   -0.17407E+01   -0.21562E+00 11136   0.165E+00    0.129E+01
DAV:  61    -0.648049427557E+03    0.20479E+00   -0.83626E-01 11424   0.128E+00    0.140E+01
DAV:  62    -0.650249735503E+03   -0.22003E+01   -0.44832E+00 11664   0.253E+00    0.146E+01
DAV:  63    -0.650655727393E+03   -0.40599E+00   -0.30667E+00 12048   0.214E+00    0.111E+01
DAV:  64    -0.650832114936E+03   -0.17639E+00   -0.15720E+00 11088   0.161E+00    0.107E+01
DAV:  65    -0.650744133862E+03    0.87981E-01   -0.83183E-01 11472   0.110E+00    0.114E+01
DAV:  66    -0.650855215485E+03   -0.11108E+00   -0.10212E+00 11328   0.122E+00    0.940E+00
DAV:  67    -0.651092951595E+03   -0.23774E+00   -0.26194E+00 11952   0.178E+00    0.129E+01
DAV:  68    -0.650806498276E+03    0.28645E+00   -0.12361E+00 11568   0.124E+00    0.952E+00
DAV:  69    -0.650870292249E+03   -0.63794E-01   -0.12880E-01 10944   0.502E-01    0.912E+00
DAV:  70    -0.651047466536E+03   -0.17717E+00   -0.31656E-01 11424   0.673E-01    0.889E+00
DAV:  71    -0.651210145649E+03   -0.16268E+00   -0.88362E-01 10992   0.889E-01    0.961E+00
DAV:  72    -0.651653018875E+03   -0.44287E+00   -0.19043E+00 11520   0.121E+00    0.122E+01
DAV:  73    -0.651577571193E+03    0.75448E-01   -0.12501E-01 10320   0.666E-01    0.118E+01
DAV:  74    -0.651606893342E+03   -0.29322E-01   -0.45217E-02 10704   0.391E-01    0.123E+01
DAV:  75    -0.651510896027E+03    0.95997E-01   -0.14156E-01 11280   0.546E-01    0.978E+00
DAV:  76    -0.651865556152E+03   -0.35466E+00   -0.16338E+00 11568   0.119E+00    0.807E+00
DAV:  77    -0.652268451908E+03   -0.40290E+00   -0.13740E+00 11184   0.129E+00    0.101E+01
DAV:  78    -0.652258797557E+03    0.96544E-02   -0.11104E-01 10848   0.549E-01    0.938E+00
DAV:  79    -0.652261589909E+03   -0.27924E-02   -0.19655E-01 11664   0.682E-01    0.821E+00
DAV:  80    -0.652426121824E+03   -0.16453E+00   -0.54959E-01 11040   0.103E+00    0.759E+00
DAV:  81    -0.652509793010E+03   -0.83671E-01   -0.52909E-01 11616   0.982E-01    0.614E+00
DAV:  82    -0.652678192842E+03   -0.16840E+00   -0.66926E-01 10896   0.716E-01    0.641E+00
DAV:  83    -0.652750826596E+03   -0.72634E-01   -0.16901E-01 11472   0.477E-01    0.626E+00
DAV:  84    -0.652763004466E+03   -0.12178E-01   -0.24182E-02 10224   0.200E-01    0.635E+00
DAV:  85    -0.652806887763E+03   -0.43883E-01   -0.77115E-02 11568   0.372E-01    0.682E+00
DAV:  86    -0.652790432745E+03    0.16455E-01   -0.20006E-01 10176   0.641E-01    0.604E+00
DAV:  87    -0.652782293698E+03    0.81390E-02   -0.16549E+00 10560   0.144E+00    0.844E+00
DAV:  88    -0.652848076646E+03   -0.65783E-01   -0.21731E-01 10800   0.829E-01    0.773E+00
DAV:  89    -0.652849818984E+03   -0.17423E-02   -0.20432E-01 10944   0.644E-01    0.621E+00
DAV:  90    -0.652988722481E+03   -0.13890E+00   -0.32782E-01 11088   0.746E-01
   5 F= -.65298872E+03 E0= -.65295634E+03  d E =-.708120E+01  mag=    -5.6603
       N       E                     dE             d eps       ncg     rms          rms(c)
DAV:   1    -0.648375937129E+03    0.44739E+01   -0.12550E+03  7680   0.517E+01    0.190E+01
DAV:   2    -0.653862568303E+03   -0.54866E+01   -0.58195E+01 11184   0.121E+01    0.353E+01
DAV:   3    -0.652141267487E+03    0.17213E+01   -0.13533E+01 13008   0.467E+00    0.256E+01
DAV:   4    -0.652342545495E+03   -0.20128E+00   -0.70550E-01 13056   0.132E+00    0.250E+01
DAV:   5    -0.652855336981E+03   -0.51279E+00   -0.72078E+00 11856   0.252E+00    0.289E+01
DAV:   6    -0.652410101427E+03    0.44524E+00   -0.10999E+01 11520   0.270E+00    0.266E+01
DAV:   7    -0.647084206028E+03    0.53259E+01   -0.18437E+01 10896   0.534E+00    0.239E+01
DAV:   8    -0.633244631483E+03    0.13840E+02   -0.40538E+01 10944   0.645E+00    0.235E+01
DAV:   9    -0.633445269582E+03   -0.20064E+00   -0.98199E+00 11232   0.325E+00    0.200E+01
DAV:  10    -0.633060188232E+03    0.38508E+00   -0.21483E+01 11232   0.283E+00    0.269E+01
DAV:  11    -0.630819674317E+03    0.22405E+01   -0.12495E+01 10368   0.197E+00    0.203E+01
DAV:  12    -0.631986260406E+03   -0.11666E+01   -0.24796E+00 11232   0.229E+00    0.190E+01
DAV:  13    -0.634364787911E+03   -0.23785E+01   -0.28958E+00 11136   0.237E+00    0.173E+01
DAV:  14    -0.644006880978E+03   -0.96421E+01   -0.76523E+00 10416   0.259E+00    0.166E+01
DAV:  15    -0.646863601074E+03   -0.28567E+01   -0.22176E+00 11472   0.195E+00    0.163E+01
DAV:  16    -0.647440328310E+03   -0.57673E+00   -0.22312E+00 11472   0.140E+00    0.168E+01
DAV:  17    -0.646835182094E+03    0.60515E+00   -0.14943E+00 10752   0.926E-01    0.132E+01
DAV:  18    -0.649338485355E+03   -0.25033E+01   -0.33802E+00 10032   0.125E+00    0.136E+01
DAV:  19    -0.650326511132E+03   -0.98803E+00   -0.98427E-01 10656   0.104E+00    0.131E+01
DAV:  20    -0.651144819935E+03   -0.81831E+00   -0.76965E-01  9216   0.107E+00    0.122E+01
DAV:  21    -0.651977615592E+03   -0.83280E+00   -0.50579E-01 10752   0.898E-01    0.103E+01
DAV:  22    -0.652740788259E+03   -0.76317E+00   -0.73806E-01 10080   0.963E-01    0.770E+00
DAV:  23    -0.653113060883E+03   -0.37227E+00   -0.20801E-01 11568   0.555E-01    0.730E+00
DAV:  24    -0.653821186867E+03   -0.70813E+00   -0.84376E-01 11568   0.948E-01    0.682E+00
DAV:  25    -0.654084356762E+03   -0.26317E+00   -0.21156E-01 10224   0.626E-01    0.659E+00
DAV:  26    -0.654173353212E+03   -0.88996E-01   -0.19238E-01 10704   0.674E-01    0.569E+00
DAV:  27    -0.654236891482E+03   -0.63538E-01   -0.11248E-01 11520   0.487E-01    0.509E+00
DAV:  28    -0.654268008990E+03   -0.31118E-01   -0.31762E-02 11424   0.311E-01    0.470E+00
DAV:  29    -0.654348090193E+03   -0.80081E-01   -0.47799E-02 10512   0.320E-01    0.420E+00
DAV:  30    -0.654468868127E+03   -0.12078E+00   -0.69384E-02 10752   0.338E-01    0.377E+00
DAV:  31    -0.654636934003E+03   -0.16807E+00   -0.18052E-01 10752   0.538E-01    0.312E+00
DAV:  32    -0.654644568710E+03   -0.76347E-02   -0.18705E-02 11040   0.234E-01    0.310E+00
DAV:  33    -0.654657406607E+03   -0.12838E-01   -0.76893E-03 12240   0.119E-01    0.301E+00
DAV:  34    -0.654654531412E+03    0.28752E-02   -0.95848E-03 12048   0.138E-01    0.322E+00
DAV:  35    -0.654740454514E+03   -0.85923E-01   -0.15179E-01 10704   0.552E-01    0.279E+00
DAV:  36    -0.654733932327E+03    0.65222E-02   -0.47009E-02 11472   0.318E-01    0.214E+00
DAV:  37    -0.654738277755E+03   -0.43454E-02   -0.28756E-02 11280   0.285E-01    0.186E+00
DAV:  38    -0.654751091127E+03   -0.12813E-01   -0.32265E-02 10896   0.279E-01    0.148E+00
DAV:  39    -0.654753560660E+03   -0.24695E-02   -0.20153E-02 11520   0.192E-01    0.125E+00
DAV:  40    -0.654761556091E+03   -0.79954E-02   -0.17778E-02 10416   0.189E-01    0.124E+00
DAV:  41    -0.654759019912E+03    0.25362E-02   -0.11785E-02 11376   0.149E-01    0.966E-01
DAV:  42    -0.654765570110E+03   -0.65502E-02   -0.52703E-03 11184   0.108E-01    0.861E-01
DAV:  43    -0.654765149967E+03    0.42014E-03   -0.22611E-03 13824   0.658E-02    0.809E-01
DAV:  44    -0.654769269890E+03   -0.41199E-02   -0.25790E-03 10944   0.774E-02    0.705E-01
DAV:  45    -0.654769672741E+03   -0.40285E-03   -0.58113E-03 11328   0.892E-02    0.532E-01
DAV:  46    -0.654772542527E+03   -0.28698E-02   -0.44936E-03 11328   0.874E-02    0.394E-01
DAV:  47    -0.654773297982E+03   -0.75546E-03   -0.10183E-02 10848   0.142E-01    0.346E-01
DAV:  48    -0.654774691867E+03   -0.13939E-02   -0.16660E-03 10176   0.658E-02    0.225E-01
DAV:  49    -0.654777201840E+03   -0.25100E-02   -0.10164E-03 10896   0.415E-02    0.151E-01
DAV:  50    -0.654780411587E+03   -0.32097E-02   -0.13991E-03 10224   0.419E-02    0.131E-01
DAV:  51    -0.654781524519E+03   -0.11129E-02   -0.92118E-04 10896   0.343E-02    0.959E-02
DAV:  52    -0.654782557793E+03   -0.10333E-02   -0.13952E-03 10560   0.402E-02    0.772E-02
DAV:  53    -0.654783572216E+03   -0.10144E-02   -0.62225E-04 11088   0.287E-02    0.707E-02
DAV:  54    -0.654784180302E+03   -0.60809E-03   -0.42127E-04 10464   0.199E-02    0.694E-02
DAV:  55    -0.654784761059E+03   -0.58076E-03   -0.10092E-03 10272   0.286E-02    0.777E-02
DAV:  56    -0.654785347967E+03   -0.58691E-03   -0.18750E-03 10368   0.396E-02    0.758E-02
DAV:  57    -0.654785650901E+03   -0.30293E-03   -0.18882E-03 10656   0.393E-02    0.711E-02
DAV:  58    -0.654785730126E+03   -0.79226E-04   -0.16372E-03 10224   0.359E-02    0.751E-02
DAV:  59    -0.654785758724E+03   -0.28597E-04   -0.11955E-03 10848   0.310E-02    0.766E-02
DAV:  60    -0.654785828305E+03   -0.69581E-04   -0.17406E-04  9840   0.157E-02    0.740E-02
DAV:  61    -0.654785895661E+03   -0.67356E-04   -0.17975E-04 10320   0.121E-02    0.720E-02
DAV:  62    -0.654786008959E+03   -0.11330E-03   -0.13822E-04 10464   0.118E-02    0.749E-02
DAV:  63    -0.654786044140E+03   -0.35181E-04   -0.15291E-04 10848   0.113E-02    0.779E-02
DAV:  64    -0.654786060726E+03   -0.16586E-04   -0.14437E-05  9504   0.582E-03    0.765E-02
DAV:  65    -0.654785993222E+03    0.67504E-04   -0.13159E-04  9456   0.111E-02    0.796E-02
DAV:  66    -0.654785997334E+03   -0.41114E-05   -0.14858E-02  9648   0.110E-01    0.847E-02
DAV:  67    -0.654786545226E+03   -0.54789E-03   -0.33097E-03 11136   0.613E-02    0.631E-02
DAV:  68    -0.654786718509E+03   -0.17328E-03   -0.12247E-02 10128   0.944E-02    0.113E-01
DAV:  69    -0.654787221052E+03   -0.50254E-03   -0.29145E-03 12096   0.578E-02    0.971E-02
DAV:  70    -0.654787246028E+03   -0.24976E-04   -0.13645E-03  8976   0.448E-02    0.106E-01
DAV:  71    -0.654787374716E+03   -0.12869E-03   -0.91901E-04  9264   0.314E-02    0.678E-02
DAV:  72    -0.654787382625E+03   -0.79094E-05   -0.21315E-04 10512   0.170E-02    0.688E-02
DAV:  73    -0.654787492893E+03   -0.11027E-03   -0.10835E-03 10128   0.300E-02    0.497E-02
DAV:  74    -0.654787574136E+03   -0.81243E-04   -0.55966E-04 11952   0.208E-02    0.715E-02
DAV:  75    -0.654787655193E+03   -0.81057E-04   -0.51609E-04  9888   0.188E-02    0.648E-02
DAV:  76    -0.654787694613E+03   -0.39420E-04   -0.46371E-05 10080   0.103E-02    0.676E-02
DAV:  77    -0.654787683788E+03    0.10824E-04   -0.31637E-05  8256   0.689E-03    0.660E-02
DAV:  78    -0.654787793935E+03   -0.11015E-03   -0.52485E-03  9888   0.640E-02    0.653E-02
DAV:  79    -0.654787784890E+03    0.90451E-05   -0.14850E-02  9600   0.102E-01    0.131E-01
DAV:  80    -0.654788267880E+03   -0.48299E-03   -0.93353E-03 10464   0.838E-02    0.165E-01
DAV:  81    -0.654788728563E+03   -0.46068E-03   -0.11161E-03  9312   0.395E-02    0.136E-01
DAV:  82    -0.654788556115E+03    0.17245E-03   -0.24346E-03  9504   0.512E-02    0.796E-02
DAV:  83    -0.654788490600E+03    0.65515E-04   -0.87753E-04 11520   0.267E-02    0.545E-02
DAV:  84    -0.654788652784E+03   -0.16218E-03   -0.39653E-03  9840   0.588E-02    0.465E-02
DAV:  85    -0.654788708425E+03   -0.55641E-04   -0.35531E-04 10368   0.265E-02    0.119E-01
DAV:  86    -0.654788751851E+03   -0.43426E-04   -0.99629E-04 10656   0.269E-02    0.159E-01
DAV:  87    -0.654788691044E+03    0.60807E-04   -0.13392E-02  9984   0.960E-02    0.604E-02
DAV:  88    -0.654789156345E+03   -0.46530E-03   -0.47154E-03 11136   0.615E-02    0.525E-02
DAV:  89    -0.654789463173E+03   -0.30683E-03   -0.22481E-03 10224   0.397E-02    0.466E-02
DAV:  90    -0.654789585976E+03   -0.12280E-03   -0.30465E-04  8880   0.270E-02
   6 F= -.65478959E+03 E0= -.65476749E+03  d E =-.888206E+01  mag=   -11.2056
       N       E                     dE             d eps       ncg     rms          rms(c)
DAV:   1    -0.654326901176E+03    0.46256E+00   -0.66098E+02  7680   0.372E+01    0.186E+01
DAV:   2    -0.656559946765E+03   -0.22330E+01   -0.29039E+01 10896   0.914E+00    0.227E+01
DAV:   3    -0.656120868049E+03    0.43908E+00   -0.53117E+00 12672   0.416E+00    0.181E+01
DAV:   4    -0.656448007035E+03   -0.32714E+00   -0.73749E+00 12384   0.327E+00    0.157E+01
DAV:   5    -0.656308396537E+03    0.13961E+00   -0.33716E+00 12096   0.377E+00    0.121E+01
DAV:   6    -0.656440635429E+03   -0.13224E+00   -0.88322E+00 12720   0.386E+00    0.858E+00
DAV:   7    -0.656108248071E+03    0.33239E+00   -0.13408E+00 12912   0.237E+00    0.495E+00
DAV:   8    -0.656063912830E+03    0.44335E-01   -0.61364E-01 11712   0.113E+00    0.285E+00
DAV:   9    -0.656069963752E+03   -0.60509E-02   -0.19473E-01 12096   0.659E-01    0.178E+00
DAV:  10    -0.656099647983E+03   -0.29684E-01   -0.88686E-02 12240   0.414E-01    0.214E+00
DAV:  11    -0.656092203083E+03    0.74449E-02   -0.51554E-02 12384   0.321E-01    0.110E+00
DAV:  12    -0.656105980667E+03   -0.13778E-01   -0.44630E-02 13056   0.271E-01    0.126E+00
DAV:  13    -0.656115188107E+03   -0.92074E-02   -0.15476E-02 11568   0.205E-01    0.721E-01
DAV:  14    -0.656124850346E+03   -0.96622E-02   -0.18874E-02 11664   0.162E-01    0.509E-01
DAV:  15    -0.656132216171E+03   -0.73658E-02   -0.90932E-03 11856   0.126E-01    0.352E-01
DAV:  16    -0.656135462740E+03   -0.32466E-02   -0.28726E-03 11856   0.785E-02    0.321E-01
DAV:  17    -0.656138322371E+03   -0.28596E-02   -0.25998E-03 11376   0.646E-02    0.204E-01
DAV:  18    -0.656140454252E+03   -0.21319E-02   -0.21668E-03 10800   0.508E-02    0.157E-01
DAV:  19    -0.656142318872E+03   -0.18646E-02   -0.26043E-03 10608   0.501E-02    0.150E-01
DAV:  20    -0.656143757110E+03   -0.14382E-02   -0.36003E-03 10608   0.525E-02    0.147E-01
DAV:  21    -0.656145770984E+03   -0.20139E-02   -0.12809E-02 10128   0.944E-02    0.162E-01
DAV:  22    -0.656147333712E+03   -0.15627E-02   -0.10212E-02 10224   0.870E-02    0.137E-01
DAV:  23    -0.656147996399E+03   -0.66269E-03   -0.94276E-04  9504   0.428E-02    0.107E-01
DAV:  24    -0.656148089092E+03   -0.92693E-04   -0.31927E-04 11040   0.226E-02    0.916E-02
DAV:  25    -0.656148122819E+03   -0.33726E-04   -0.54905E-05 13056   0.987E-03    0.891E-02
DAV:  26    -0.656147839729E+03    0.28309E-03   -0.60945E-04 10272   0.218E-02    0.984E-02
DAV:  27    -0.656147844160E+03   -0.44305E-05   -0.23787E-05  9504   0.839E-03    0.969E-02
DAV:  28    -0.656147412132E+03    0.43203E-03   -0.20236E-03 10320   0.380E-02    0.102E-01
DAV:  29    -0.656146996933E+03    0.41520E-03   -0.23400E-03 10560   0.395E-02    0.102E-01
DAV:  30    -0.656147189720E+03   -0.19279E-03   -0.12709E-04  9024   0.204E-02    0.100E-01
DAV:  31    -0.656147270723E+03   -0.81003E-04   -0.16831E-04  9744   0.133E-02    0.111E-01
DAV:  32    -0.656148136345E+03   -0.86562E-03   -0.70475E-02  9888   0.209E-01    0.140E-01
DAV:  33    -0.656149640949E+03   -0.15046E-02   -0.17978E-02  9792   0.119E-01    0.139E-01
DAV:  34    -0.656150473721E+03   -0.83277E-03   -0.21120E-03 10656   0.530E-02    0.137E-01
DAV:  35    -0.656150769825E+03   -0.29610E-03   -0.14907E-03 10080   0.312E-02    0.136E-01
DAV:  36    -0.656150976901E+03   -0.20708E-03   -0.55054E-03  9696   0.564E-02    0.142E-01
DAV:  37    -0.656151113438E+03   -0.13654E-03   -0.80132E-03  9792   0.699E-02    0.129E-01
DAV:  38    -0.656151315188E+03   -0.20175E-03   -0.47931E-04  8448   0.372E-02    0.142E-01
DAV:  39    -0.656151333874E+03   -0.18687E-04   -0.34487E-05 10752   0.908E-03    0.149E-01
DAV:  40    -0.656151031025E+03    0.30285E-03   -0.28898E-02 10080   0.133E-01    0.223E-01
DAV:  41    -0.656151668532E+03   -0.63751E-03   -0.61805E-04  9360   0.510E-02    0.222E-01
DAV:  42    -0.656151752350E+03   -0.83817E-04   -0.54759E-04 12384   0.185E-02    0.228E-01
DAV:  43    -0.656151483079E+03    0.26927E-03   -0.30540E-03 10080   0.462E-02    0.218E-01
DAV:  44    -0.656151720739E+03   -0.23766E-03   -0.25404E-03  9744   0.453E-02    0.208E-01
DAV:  45    -0.656151919809E+03   -0.19907E-03   -0.62535E-03  9600   0.635E-02    0.186E-01
DAV:  46    -0.656151953712E+03   -0.33903E-04   -0.22072E-02  9984   0.114E-01    0.202E-01
DAV:  47    -0.656152610607E+03   -0.65689E-03   -0.34001E-03 10752   0.614E-02    0.193E-01
DAV:  48    -0.656152752568E+03   -0.14196E-03   -0.20988E-04  8544   0.245E-02    0.200E-01
DAV:  49    -0.656152816638E+03   -0.64070E-04   -0.11439E-04 12048   0.895E-03    0.188E-01
DAV:  50    -0.656152847235E+03   -0.30597E-04   -0.23503E-05  9552   0.618E-03    0.178E-01
DAV:  51    -0.656152704220E+03    0.14302E-03   -0.31221E-03  9888   0.448E-02    0.140E-01
DAV:  52    -0.656152697435E+03    0.67847E-05   -0.62018E-04 10800   0.245E-02    0.148E-01
DAV:  53    -0.656152594092E+03    0.10334E-03   -0.26106E-03  9504   0.400E-02    0.115E-01
DAV:  54    -0.656152613683E+03   -0.19591E-04   -0.76953E-04 11568   0.272E-02    0.117E-01
DAV:  55    -0.656152622832E+03   -0.91494E-05   -0.18160E-04  9888   0.117E-02    0.113E-01
DAV:  56    -0.656152426846E+03    0.19599E-03   -0.23142E-03  9744   0.366E-02    0.110E-01
DAV:  57    -0.656152588504E+03   -0.16166E-03   -0.24570E-03  9312   0.457E-02    0.984E-02
DAV:  58    -0.656152490989E+03    0.97515E-04   -0.15316E-03  8928   0.343E-02    0.109E-01
DAV:  59    -0.656152478303E+03    0.12686E-04   -0.11956E-04 10752   0.139E-02    0.110E-01
DAV:  60    -0.656152477976E+03    0.32724E-06   -0.80016E-06  9312   0.388E-03
   7 F= -.65615248E+03 E0= -.65612915E+03  d E =-.102450E+02  mag=   -11.2178
       N       E                     dE             d eps       ncg     rms          rms(c)
DAV:   1    -0.656142168860E+03    0.10309E-01   -0.17489E+01  7680   0.609E+00    0.224E+00
DAV:   2    -0.656188282182E+03   -0.46113E-01   -0.62975E-01 11088   0.144E+00    0.336E+00
DAV:   3    -0.656182644782E+03    0.56374E-02   -0.11219E-01 12288   0.582E-01    0.259E+00
DAV:   4    -0.656184974506E+03   -0.23297E-02   -0.40113E-02 13872   0.314E-01    0.228E+00
DAV:   5    -0.656191884574E+03   -0.69101E-02   -0.13997E-01 12720   0.493E-01    0.276E+00
DAV:   6    -0.656182700185E+03    0.91844E-02   -0.13762E-01 12096   0.470E-01    0.126E+00
DAV:   7    -0.656182552650E+03    0.14754E-03   -0.50858E-02 12720   0.354E-01    0.879E-01
DAV:   8    -0.656182292174E+03    0.26048E-03   -0.16487E-02 12192   0.183E-01    0.382E-01
DAV:   9    -0.656183111455E+03   -0.81928E-03   -0.29537E-03 11376   0.894E-02    0.253E-01
DAV:  10    -0.656183448412E+03   -0.33696E-03   -0.11803E-03 13104   0.483E-02    0.210E-01
DAV:  11    -0.656184004461E+03   -0.55605E-03   -0.51907E-04 12768   0.362E-02    0.165E-01
DAV:  12    -0.656184611655E+03   -0.60719E-03   -0.50234E-04 12000   0.322E-02    0.992E-02
DAV:  13    -0.656185343519E+03   -0.73186E-03   -0.68440E-04 11376   0.321E-02    0.876E-02
DAV:  14    -0.656185805747E+03   -0.46223E-03   -0.42973E-04 11136   0.229E-02    0.626E-02
DAV:  15    -0.656186092577E+03   -0.28683E-03   -0.29429E-04 11184   0.169E-02    0.583E-02
DAV:  16    -0.656186211810E+03   -0.11923E-03   -0.90317E-05 11376   0.105E-02    0.412E-02
DAV:  17    -0.656186323278E+03   -0.11147E-03   -0.96293E-05 10272   0.881E-03    0.384E-02
DAV:  18    -0.656186349613E+03   -0.26335E-04   -0.10762E-05 10320   0.475E-03    0.378E-02
DAV:  19    -0.656186427216E+03   -0.77603E-04   -0.83603E-05 10272   0.784E-03    0.419E-02
DAV:  20    -0.656186216629E+03    0.21059E-03   -0.59412E-04  9888   0.220E-02    0.478E-02
DAV:  21    -0.656186317616E+03   -0.10099E-03   -0.12599E-04  9072   0.133E-02    0.505E-02
DAV:  22    -0.656186719458E+03   -0.40184E-03   -0.51263E-03  9648   0.601E-02    0.457E-02
DAV:  23    -0.656187117869E+03   -0.39841E-03   -0.92723E-03  9552   0.788E-02    0.586E-02
DAV:  24    -0.656187398633E+03   -0.28076E-03   -0.31830E-04  9936   0.390E-02    0.501E-02
DAV:  25    -0.656187356505E+03    0.42128E-04   -0.12235E-04  9312   0.125E-02    0.491E-02
DAV:  26    -0.656187395127E+03   -0.38622E-04   -0.42195E-05  8832   0.692E-03    0.495E-02
DAV:  27    -0.656187343786E+03    0.51341E-04   -0.10940E-04  9648   0.954E-03    0.508E-02
DAV:  28    -0.656187186373E+03    0.15741E-03   -0.85104E-04  9312   0.255E-02    0.633E-02
DAV:  29    -0.656186927557E+03    0.25882E-03   -0.23509E-03  9936   0.428E-02    0.108E-01
DAV:  30    -0.656186971997E+03   -0.44440E-04   -0.22108E-04 10800   0.206E-02    0.118E-01
DAV:  31    -0.656187035059E+03   -0.63062E-04   -0.57004E-05  8832   0.967E-03    0.116E-01
DAV:  32    -0.656187053302E+03   -0.18243E-04   -0.12480E-05  9360   0.379E-03    0.116E-01
DAV:  33    -0.656187054256E+03   -0.95378E-06   -0.83517E-07  5328   0.150E-03
   8 F= -.65618705E+03 E0= -.65616408E+03  d E =-.102795E+02  mag=   -11.2580
       N       E                     dE             d eps       ncg     rms          rms(c)
DAV:   1    -0.649109893513E+03    0.70772E+01   -0.21770E+03  8304   0.736E+01    0.197E+01
DAV:   2    -0.659016879146E+03   -0.99070E+01   -0.12127E+02 11760   0.204E+01    0.406E+01
DAV:   3    -0.658408394552E+03    0.60848E+00   -0.75356E+01 13968   0.698E+00    0.246E+01
DAV:   4    -0.657587317251E+03    0.82108E+00   -0.27327E+00 13632   0.308E+00    0.211E+01
DAV:   5    -0.661973673599E+03   -0.43864E+01   -0.52350E+01 12720   0.587E+00    0.384E+01
DAV:   6    -0.658118668526E+03    0.38550E+01   -0.40052E+01 11136   0.538E+00    0.282E+01
DAV:   7    -0.657032636479E+03    0.10860E+01   -0.38132E+00 10224   0.221E+00    0.250E+01
DAV:   8    -0.656714354822E+03    0.31828E+00   -0.33709E-01 12720   0.898E-01    0.234E+01
DAV:   9    -0.655637930429E+03    0.10764E+01   -0.22096E+00 10896   0.183E+00    0.199E+01
DAV:  10    -0.656170417398E+03   -0.53249E+00   -0.99241E+00 11664   0.287E+00    0.217E+01
DAV:  11    -0.656303013111E+03   -0.13260E+00   -0.18704E+01 11760   0.359E+00    0.212E+01
DAV:  12    -0.654108253061E+03    0.21948E+01   -0.31796E+00 10992   0.227E+00    0.153E+01
DAV:  13    -0.654633295522E+03   -0.52504E+00   -0.29048E+00 11712   0.208E+00    0.143E+01
DAV:  14    -0.654454833366E+03    0.17846E+00   -0.49908E-01 10848   0.107E+00    0.133E+01
DAV:  15    -0.654393734947E+03    0.61098E-01   -0.95991E-01 10608   0.118E+00    0.118E+01
DAV:  16    -0.654373097560E+03    0.20637E-01   -0.25954E-01 11136   0.747E-01    0.108E+01
DAV:  17    -0.654488762019E+03   -0.11566E+00   -0.33164E-01 10512   0.679E-01    0.109E+01
DAV:  18    -0.654466393676E+03    0.22368E-01   -0.21265E-01 11280   0.855E-01    0.933E+00
DAV:  19    -0.654970512268E+03   -0.50412E+00   -0.11041E+00 10896   0.148E+00    0.706E+00
DAV:  20    -0.655542180180E+03   -0.57167E+00   -0.65018E-01 11616   0.843E-01    0.908E+00
DAV:  21    -0.655510651742E+03    0.31528E-01   -0.53316E-01 11376   0.977E-01    0.711E+00
DAV:  22    -0.656191660843E+03   -0.68101E+00   -0.47190E-01 10800   0.850E-01    0.918E+00
DAV:  23    -0.656344562113E+03   -0.15290E+00   -0.18963E-01 11040   0.561E-01    0.943E+00
DAV:  24    -0.656757770282E+03   -0.41321E+00   -0.45133E-01 10896   0.723E-01    0.908E+00
DAV:  25    -0.657090367900E+03   -0.33260E+00   -0.18030E-01 10416   0.623E-01    0.825E+00
DAV:  26    -0.657425055913E+03   -0.33469E+00   -0.28718E-01 10560   0.706E-01    0.737E+00
DAV:  27    -0.657500343744E+03   -0.75288E-01   -0.10034E-01 11760   0.447E-01    0.646E+00
DAV:  28    -0.657588942985E+03   -0.88599E-01   -0.25309E-02 10944   0.215E-01    0.653E+00
DAV:  29    -0.657599178022E+03   -0.10235E-01   -0.11076E-02 11136   0.149E-01    0.679E+00
DAV:  30    -0.657756573381E+03   -0.15740E+00   -0.25199E-01 10608   0.224E-01    0.844E+00
DAV:  31    -0.657839620579E+03   -0.83047E-01   -0.54335E-02  9504   0.281E-01    0.830E+00
DAV:  32    -0.657859607885E+03   -0.19987E-01   -0.14676E-02 11328   0.159E-01    0.808E+00
DAV:  33    -0.657852440007E+03    0.71679E-02   -0.11027E-03 10320   0.565E-02    0.809E+00
DAV:  34    -0.657920158488E+03   -0.67718E-01   -0.13617E-02 10560   0.129E-01    0.813E+00
DAV:  35    -0.657953112448E+03   -0.32954E-01   -0.62052E-03 11376   0.980E-02    0.809E+00
DAV:  36    -0.658017369684E+03   -0.64257E-01   -0.64082E-03 11376   0.102E-01    0.798E+00
DAV:  37    -0.658098437533E+03   -0.81068E-01   -0.13337E-02 11328   0.179E-01    0.768E+00
DAV:  38    -0.658278001321E+03   -0.17956E+00   -0.61162E-02 10752   0.377E-01    0.696E+00
DAV:  39    -0.658616263329E+03   -0.33826E+00   -0.20019E-01 10992   0.737E-01    0.587E+00
DAV:  40    -0.658746964608E+03   -0.13070E+00   -0.10138E-01 11808   0.450E-01    0.557E+00
DAV:  41    -0.658759363380E+03   -0.12399E-01   -0.13973E-02 10560   0.195E-01    0.546E+00
DAV:  42    -0.658976645091E+03   -0.21728E+00   -0.51349E-02 10752   0.296E-01    0.489E+00
DAV:  43    -0.659076509469E+03   -0.99864E-01   -0.36252E-02 11280   0.255E-01    0.473E+00
DAV:  44    -0.659087403710E+03   -0.10894E-01   -0.16254E-02 11136   0.172E-01    0.463E+00
DAV:  45    -0.659083424064E+03    0.39796E-02   -0.18628E-03  9792   0.733E-02    0.465E+00
DAV:  46    -0.659091135931E+03   -0.77119E-02   -0.87582E-04 12192   0.457E-02    0.461E+00
DAV:  47    -0.659262196389E+03   -0.17106E+00   -0.51884E-01 10800   0.116E+00    0.433E+00
DAV:  48    -0.659259431722E+03    0.27647E-02   -0.62795E-02 11520   0.398E-01    0.430E+00
DAV:  49    -0.659260305812E+03   -0.87409E-03   -0.28095E-03 13344   0.798E-02    0.431E+00
DAV:  50    -0.659260180308E+03    0.12550E-03   -0.94825E-04 11904   0.501E-02    0.428E+00
DAV:  51    -0.659260492438E+03   -0.31213E-03   -0.16449E-03 10992   0.431E-02    0.429E+00
DAV:  52    -0.659323454180E+03   -0.62962E-01   -0.12848E-01 10656   0.511E-01    0.449E+00
DAV:  53    -0.659332843734E+03   -0.93896E-02   -0.33168E-02 11040   0.266E-01    0.466E+00
DAV:  54    -0.659332731655E+03    0.11208E-03   -0.30073E-03 10656   0.948E-02    0.462E+00
DAV:  55    -0.659325810785E+03    0.69209E-02   -0.41866E-02 10944   0.251E-01    0.439E+00
DAV:  56    -0.659315253999E+03    0.10557E-01   -0.59799E-02 11088   0.362E-01    0.399E+00
DAV:  57    -0.659294464039E+03    0.20790E-01   -0.43651E-01 10848   0.866E-01    0.535E+00
DAV:  58    -0.659371645453E+03   -0.77181E-01   -0.59006E-02 10896   0.399E-01    0.491E+00
DAV:  59    -0.659436429102E+03   -0.64784E-01   -0.24009E-02 11424   0.229E-01    0.468E+00
DAV:  60    -0.659446013105E+03   -0.95840E-02   -0.13170E-02 10848   0.156E-01    0.488E+00
DAV:  61    -0.659442549696E+03    0.34634E-02   -0.12512E-03 11280   0.587E-02    0.488E+00
DAV:  62    -0.659480841905E+03   -0.38292E-01   -0.31871E-01 10752   0.701E-01    0.426E+00
DAV:  63    -0.659524824735E+03   -0.43983E-01   -0.60911E-02 11328   0.385E-01    0.397E+00
DAV:  64    -0.659620597648E+03   -0.95773E-01   -0.23973E-01 10896   0.725E-01    0.363E+00
DAV:  65    -0.659621589893E+03   -0.99225E-03   -0.37292E-01 10800   0.818E-01    0.430E+00
DAV:  66    -0.659613866468E+03    0.77234E-02   -0.16358E-01 11040   0.455E-01    0.478E+00
DAV:  67    -0.659586124482E+03    0.27742E-01   -0.74746E-02 10656   0.355E-01    0.444E+00
DAV:  68    -0.659614320135E+03   -0.28196E-01   -0.25107E-02 10272   0.261E-01    0.441E+00
DAV:  69    -0.659680998727E+03   -0.66679E-01   -0.11460E-01 10896   0.357E-01    0.433E+00
DAV:  70    -0.659774631071E+03   -0.93632E-01   -0.14174E-01 10704   0.399E-01    0.366E+00
DAV:  71    -0.659790208001E+03   -0.15577E-01   -0.19622E-02 10800   0.202E-01    0.347E+00
DAV:  72    -0.659837698459E+03   -0.47490E-01   -0.18315E+00 10896   0.169E+00    0.332E+00
DAV:  73    -0.659841101361E+03   -0.34029E-02   -0.40765E-01 10656   0.833E-01    0.191E+00
DAV:  74    -0.659854037144E+03   -0.12936E-01   -0.31038E-02 10608   0.278E-01    0.199E+00
DAV:  75    -0.659867198691E+03   -0.13162E-01   -0.98948E-03 11472   0.137E-01    0.208E+00
DAV:  76    -0.659863689508E+03    0.35092E-02   -0.10052E-03 11472   0.539E-02    0.204E+00
DAV:  77    -0.659847365656E+03    0.16324E-01   -0.53600E-02 10416   0.266E-01    0.193E+00
DAV:  78    -0.659852568557E+03   -0.52029E-02   -0.80028E-03 11520   0.123E-01    0.178E+00
DAV:  79    -0.659858566674E+03   -0.59981E-02   -0.10134E-02 10944   0.112E-01    0.157E+00
DAV:  80    -0.659861912302E+03   -0.33456E-02   -0.54020E-03 11088   0.900E-02    0.151E+00
DAV:  81    -0.659860652294E+03    0.12600E-02   -0.11185E-02 10752   0.119E-01    0.147E+00
DAV:  82    -0.659856013327E+03    0.46390E-02   -0.75613E-03 11184   0.108E-01    0.149E+00
DAV:  83    -0.659859599068E+03   -0.35857E-02   -0.63421E-03 10656   0.113E-01    0.147E+00
DAV:  84    -0.659887618933E+03   -0.28020E-01   -0.50552E-02 11040   0.266E-01    0.146E+00
DAV:  85    -0.659905038515E+03   -0.17420E-01   -0.90770E-03 10464   0.157E-01    0.145E+00
DAV:  86    -0.659926422840E+03   -0.21384E-01   -0.91091E-03 10560   0.123E-01    0.150E+00
DAV:  87    -0.659926691198E+03   -0.26836E-03   -0.80403E-03 11184   0.111E-01    0.138E+00
DAV:  88    -0.659940641206E+03   -0.13950E-01   -0.44123E-03 11568   0.825E-02    0.120E+00
DAV:  89    -0.659968817844E+03   -0.28177E-01   -0.19932E-02 10224   0.137E-01    0.103E+00
DAV:  90    -0.659975273186E+03   -0.64553E-02   -0.29115E-03 11808   0.748E-02
   9 F= -.65997527E+03 E0= -.65995015E+03  d E =-.378822E+01  mag=   -20.5267
       N       E                     dE             d eps       ncg     rms          rms(c)
DAV:   1    -0.660066799099E+03   -0.97981E-01   -0.23277E+01  7680   0.718E+00    0.335E+00
DAV:   2    -0.660244692806E+03   -0.17789E+00   -0.16626E+00 11664   0.201E+00    0.637E+00
DAV:   3    -0.660163818329E+03    0.80874E-01   -0.44784E-01 13488   0.896E-01    0.358E+00
DAV:   4    -0.660175223172E+03   -0.11405E-01   -0.82773E-02 12528   0.477E-01    0.304E+00
DAV:   5    -0.660201337969E+03   -0.26115E-01   -0.18824E-01 12192   0.669E-01    0.362E+00
DAV:   6    -0.660237214403E+03   -0.35876E-01   -0.36723E-01 11712   0.866E-01    0.327E+00
DAV:   7    -0.660226741821E+03    0.10473E-01   -0.17967E-01 11376   0.608E-01    0.253E+00
DAV:   8    -0.660228325809E+03   -0.15840E-02   -0.56393E-02 10800   0.310E-01    0.247E+00
DAV:   9    -0.660227673711E+03    0.65210E-03   -0.60510E-03 10752   0.126E-01    0.245E+00
DAV:  10    -0.660232792292E+03   -0.51186E-02   -0.13127E-02 11088   0.120E-01    0.249E+00
DAV:  11    -0.660241528461E+03   -0.87362E-02   -0.65399E-02 10896   0.269E-01    0.250E+00
DAV:  12    -0.660260306455E+03   -0.18778E-01   -0.41727E-01 11088   0.642E-01    0.291E+00
DAV:  13    -0.660259336103E+03    0.97035E-03   -0.30558E-01 12336   0.579E-01    0.335E+00
DAV:  14    -0.660239192333E+03    0.20144E-01   -0.22105E-01 11616   0.465E-01    0.138E+00
DAV:  15    -0.660240829584E+03   -0.16373E-02   -0.36819E-02 11664   0.292E-01    0.977E-01
DAV:  16    -0.660244120029E+03   -0.32904E-02   -0.17622E-02 10944   0.171E-01    0.107E+00
DAV:  17    -0.660245983266E+03   -0.18632E-02   -0.98578E-03 12096   0.134E-01    0.865E-01
DAV:  18    -0.660248183550E+03   -0.22003E-02   -0.11758E-02 10464   0.122E-01    0.733E-01
DAV:  19    -0.660251114139E+03   -0.29306E-02   -0.24898E-02 10608   0.138E-01    0.601E-01
DAV:  20    -0.660252247999E+03   -0.11339E-02   -0.52734E-03 11280   0.730E-02    0.558E-01
DAV:  21    -0.660252357919E+03   -0.10992E-03   -0.69131E-04  9984   0.296E-02    0.563E-01
DAV:  22    -0.660252975631E+03   -0.61771E-03   -0.25761E-03 10944   0.395E-02    0.569E-01
DAV:  23    -0.660254163828E+03   -0.11882E-02   -0.13235E-02 10464   0.876E-02    0.573E-01
DAV:  24    -0.660255063771E+03   -0.89994E-03   -0.92457E-03 11328   0.755E-02    0.578E-01
DAV:  25    -0.660254776762E+03    0.28701E-03   -0.39091E-04  8448   0.338E-02    0.575E-01
DAV:  26    -0.660253156160E+03    0.16206E-02   -0.80884E-03  9984   0.727E-02    0.582E-01
DAV:  27    -0.660253802968E+03   -0.64681E-03   -0.52741E-04  9984   0.339E-02    0.582E-01
DAV:  28    -0.660254533222E+03   -0.73025E-03   -0.14979E-03  9936   0.379E-02    0.543E-01
DAV:  29    -0.660258545803E+03   -0.40126E-02   -0.84005E-02 10128   0.230E-01    0.466E-01
DAV:  30    -0.660259915783E+03   -0.13700E-02   -0.22017E-02 12144   0.137E-01    0.397E-01
DAV:  31    -0.660259976807E+03   -0.61024E-04   -0.76365E-02 10320   0.210E-01    0.463E-01
DAV:  32    -0.660260512935E+03   -0.53613E-03   -0.14147E-02 12000   0.117E-01    0.422E-01
DAV:  33    -0.660260674030E+03   -0.16109E-03   -0.98028E-03 11088   0.733E-02    0.399E-01
DAV:  34    -0.660260349203E+03    0.32483E-03   -0.39506E-03 10944   0.536E-02    0.361E-01
DAV:  35    -0.660259787884E+03    0.56132E-03   -0.10444E-02 10752   0.778E-02    0.368E-01
DAV:  36    -0.660260067155E+03   -0.27927E-03   -0.62005E-03 11184   0.640E-02    0.363E-01
DAV:  37    -0.660259777343E+03    0.28981E-03   -0.58283E-03  9648   0.751E-02    0.357E-01
DAV:  38    -0.660259952329E+03   -0.17499E-03   -0.23704E-03 12096   0.444E-02    0.387E-01
DAV:  39    -0.660260437782E+03   -0.48545E-03   -0.55964E-03  9600   0.682E-02    0.391E-01
DAV:  40    -0.660260934652E+03   -0.49687E-03   -0.22110E-03 11856   0.409E-02    0.406E-01
DAV:  41    -0.660261640152E+03   -0.70550E-03   -0.32111E-03 10848   0.430E-02    0.401E-01
DAV:  42    -0.660261769463E+03   -0.12931E-03   -0.12697E-04  9744   0.226E-02    0.404E-01
DAV:  43    -0.660261860960E+03   -0.91497E-04   -0.41745E-04  9600   0.195E-02    0.406E-01
DAV:  44    -0.660261955362E+03   -0.94402E-04   -0.42078E-05 11184   0.883E-03    0.411E-01
DAV:  45    -0.660262354029E+03   -0.39867E-03   -0.23203E-03 10224   0.412E-02    0.419E-01
DAV:  46    -0.660262460804E+03   -0.10678E-03   -0.22811E-02 10080   0.127E-01    0.572E-01
DAV:  47    -0.660260478885E+03    0.19819E-02   -0.25025E-02 10320   0.156E-01    0.822E-01
DAV:  48    -0.660261672699E+03   -0.11938E-02   -0.17316E-02 10272   0.123E-01    0.746E-01
DAV:  49    -0.660262674276E+03   -0.10016E-02   -0.37187E-03 11136   0.745E-02    0.717E-01
DAV:  50    -0.660262503717E+03    0.17056E-03   -0.58484E-04 10608   0.319E-02    0.707E-01
DAV:  51    -0.660261630789E+03    0.87293E-03   -0.35290E-03 10176   0.605E-02    0.780E-01
DAV:  52    -0.660260989313E+03    0.64148E-03   -0.11430E-03 12288   0.362E-02    0.795E-01
DAV:  53    -0.660261183047E+03   -0.19373E-03   -0.88829E-04  9264   0.328E-02    0.767E-01
DAV:  54    -0.660261334083E+03   -0.15104E-03   -0.13840E-04  9408   0.154E-02    0.782E-01
DAV:  55    -0.660261779678E+03   -0.44560E-03   -0.22481E-04  9696   0.167E-02    0.781E-01
DAV:  56    -0.660261713502E+03    0.66176E-04   -0.54790E-04  9984   0.230E-02    0.817E-01
DAV:  57    -0.660261708261E+03    0.52413E-05   -0.20895E-03  9984   0.525E-02    0.796E-01
DAV:  58    -0.660261440916E+03    0.26734E-03   -0.73104E-03 10512   0.800E-02    0.833E-01
DAV:  59    -0.660261400859E+03    0.40057E-04   -0.10536E-03 11376   0.451E-02    0.816E-01
DAV:  60    -0.660261528431E+03   -0.12757E-03   -0.16332E-03  9984   0.405E-02    0.774E-01
DAV:  61    -0.660262111374E+03   -0.58294E-03   -0.46752E-04 10512   0.285E-02    0.722E-01
DAV:  62    -0.660262328050E+03   -0.21668E-03   -0.14055E-03 10656   0.402E-02    0.710E-01
DAV:  63    -0.660262646530E+03   -0.31848E-03   -0.16277E-03 10944   0.383E-02    0.699E-01
DAV:  64    -0.660262859949E+03   -0.21342E-03   -0.92578E-04  9168   0.323E-02    0.708E-01
DAV:  65    -0.660262483130E+03    0.37682E-03   -0.39020E-03 10416   0.517E-02    0.717E-01
DAV:  66    -0.660261043991E+03    0.14391E-02   -0.13582E-02 10368   0.935E-02    0.736E-01
DAV:  67    -0.660260325274E+03    0.71872E-03   -0.75517E-03 11184   0.753E-02    0.721E-01
DAV:  68    -0.660260070197E+03    0.25508E-03   -0.97765E-04  9456   0.361E-02    0.722E-01
DAV:  69    -0.660259775260E+03    0.29494E-03   -0.59957E-04 11136   0.205E-02    0.729E-01
DAV:  70    -0.660259275991E+03    0.49927E-03   -0.22897E-03 10416   0.354E-02    0.738E-01
DAV:  71    -0.660258352742E+03    0.92325E-03   -0.53545E-03 10704   0.547E-02    0.754E-01
DAV:  72    -0.660257273066E+03    0.10797E-02   -0.55257E-03 10752   0.575E-02    0.777E-01
DAV:  73    -0.660257242406E+03    0.30659E-04   -0.22972E-04  8592   0.288E-02    0.766E-01
DAV:  74    -0.660257121017E+03    0.12139E-03   -0.86742E-05 11424   0.803E-03    0.770E-01
DAV:  75    -0.660256972726E+03    0.14829E-03   -0.13064E-04 10176   0.910E-03    0.775E-01
DAV:  76    -0.660256666144E+03    0.30658E-03   -0.44483E-04 10032   0.168E-02    0.792E-01
DAV:  77    -0.660254301369E+03    0.23648E-02   -0.14382E-02 10032   0.946E-02    0.862E-01
DAV:  78    -0.660255146059E+03   -0.84469E-03   -0.15337E-03  9696   0.552E-02    0.828E-01
DAV:  79    -0.660255106192E+03    0.39867E-04   -0.11890E-04 10560   0.123E-02    0.826E-01
DAV:  80    -0.660254789187E+03    0.31700E-03   -0.49111E-04 10032   0.175E-02    0.834E-01
DAV:  81    -0.660254472669E+03    0.31652E-03   -0.57939E-04 10992   0.183E-02    0.830E-01
DAV:  82    -0.660254948260E+03   -0.47559E-03   -0.93820E-04  9216   0.317E-02    0.775E-01
DAV:  83    -0.660255762688E+03   -0.81443E-03   -0.70115E-03 10320   0.657E-02    0.729E-01
DAV:  84    -0.660256664937E+03   -0.90225E-03   -0.29644E-03 11520   0.449E-02    0.706E-01
DAV:  85    -0.660257469719E+03   -0.80478E-03   -0.43458E-03 10416   0.478E-02    0.691E-01
DAV:  86    -0.660258618283E+03   -0.11486E-02   -0.14335E-02 10416   0.880E-02    0.662E-01
DAV:  87    -0.660227216631E+03    0.31402E-01   -0.17381E+00 10176   0.975E-01    0.147E+00
DAV:  88    -0.660253172894E+03   -0.25956E-01   -0.46687E-02 10608   0.355E-01    0.154E+00
DAV:  89    -0.660253470995E+03   -0.29810E-03   -0.26955E-03 11952   0.697E-02    0.155E+00
DAV:  90    -0.660252996078E+03    0.47492E-03   -0.19728E-04 12624   0.175E-02
  10 F= -.66025300E+03 E0= -.66022263E+03  d E =-.406594E+01  mag=   -21.0306
       N       E                     dE             d eps       ncg     rms          rms(c)
DAV:   1    -0.660106044021E+03    0.14743E+00   -0.64842E+01  7680   0.120E+01    0.517E+00
DAV:   2    -0.660441956369E+03   -0.33591E+00   -0.38996E+00 11472   0.343E+00    0.776E+00
DAV:   3    -0.660304052005E+03    0.13790E+00   -0.94506E-01 13392   0.167E+00    0.467E+00
DAV:   4    -0.660311792636E+03   -0.77406E-02   -0.24854E-01 12624   0.909E-01    0.372E+00
DAV:   5    -0.660369562930E+03   -0.57770E-01   -0.84865E-01 12384   0.130E+00    0.569E+00
DAV:   6    -0.660393877016E+03   -0.24314E-01   -0.19679E+00 12528   0.158E+00    0.404E+00
DAV:   7    -0.660317202292E+03    0.76675E-01   -0.14748E-01 12432   0.870E-01    0.206E+00
DAV:   8    -0.660311756701E+03    0.54456E-02   -0.13835E-01 12000   0.564E-01    0.153E+00
DAV:   9    -0.660314084679E+03   -0.23280E-02   -0.58462E-02 11808   0.341E-01    0.948E-01
DAV:  10    -0.660316231748E+03   -0.21471E-02   -0.14580E-02 12288   0.195E-01    0.720E-01
DAV:  11    -0.660316736877E+03   -0.50513E-03   -0.12180E-02 11472   0.147E-01    0.557E-01
DAV:  12    -0.660317331590E+03   -0.59471E-03   -0.11623E-02 11136   0.140E-01    0.731E-01
DAV:  13    -0.660313189023E+03    0.41426E-02   -0.17318E-02 11472   0.168E-01    0.405E-01
DAV:  14    -0.660311255133E+03    0.19339E-02   -0.11111E-02 11232   0.139E-01    0.421E-01
DAV:  15    -0.660311546528E+03   -0.29140E-03   -0.51513E-03 11952   0.102E-01    0.348E-01
DAV:  16    -0.660314395339E+03   -0.28488E-02   -0.39999E-03 11184   0.829E-02    0.229E-01
DAV:  17    -0.660316703294E+03   -0.23080E-02   -0.22893E-03 11616   0.581E-02    0.167E-01
DAV:  18    -0.660317430236E+03   -0.72694E-03   -0.76877E-04 12336   0.357E-02    0.107E-01
DAV:  19    -0.660318366707E+03   -0.93647E-03   -0.11334E-03 10656   0.310E-02    0.122E-01
DAV:  20    -0.660318397852E+03   -0.31144E-04   -0.75410E-05 11328   0.160E-02    0.120E-01
DAV:  21    -0.660318432638E+03   -0.34786E-04   -0.43166E-05 11424   0.665E-03    0.120E-01
DAV:  22    -0.660318322580E+03    0.11006E-03   -0.29702E-04 10224   0.176E-02    0.131E-01
DAV:  23    -0.660318247962E+03    0.74618E-04   -0.53267E-04 10944   0.208E-02    0.129E-01
DAV:  24    -0.660318110770E+03    0.13719E-03   -0.59539E-04 10656   0.206E-02    0.130E-01
DAV:  25    -0.660317880092E+03    0.23068E-03   -0.10689E-03 10800   0.273E-02    0.140E-01
DAV:  26    -0.660317600197E+03    0.27989E-03   -0.62914E-04 10560   0.231E-02    0.139E-01
DAV:  27    -0.660317577728E+03    0.22469E-04   -0.78588E-05  8928   0.129E-02    0.132E-01
DAV:  28    -0.660317550261E+03    0.27467E-04   -0.30227E-05 10080   0.603E-03    0.130E-01
DAV:  29    -0.660317530093E+03    0.20167E-04   -0.60328E-05  9552   0.746E-03    0.133E-01
DAV:  30    -0.660317676806E+03   -0.14671E-03   -0.16061E-03 10080   0.373E-02    0.129E-01
DAV:  31    -0.660317876559E+03   -0.19975E-03   -0.24083E-03 10752   0.420E-02    0.115E-01
DAV:  32    -0.660318488634E+03   -0.61208E-03   -0.23736E-03 10944   0.398E-02    0.117E-01
DAV:  33    -0.660319199518E+03   -0.71088E-03   -0.30648E-03 10656   0.443E-02    0.123E-01
DAV:  34    -0.660320303165E+03   -0.11036E-02   -0.97560E-03 10320   0.811E-02    0.114E-01
DAV:  35    -0.660321550418E+03   -0.12473E-02   -0.35070E-03 11328   0.557E-02    0.995E-02
DAV:  36    -0.660322143165E+03   -0.59275E-03   -0.97940E-04  9360   0.278E-02    0.875E-02
DAV:  37    -0.660322623861E+03   -0.48070E-03   -0.13699E-03 10656   0.261E-02    0.776E-02
DAV:  38    -0.660322994634E+03   -0.37077E-03   -0.10765E-03 10080   0.236E-02    0.753E-02
DAV:  39    -0.660323176968E+03   -0.18233E-03   -0.32313E-04  9552   0.150E-02    0.748E-02
DAV:  40    -0.660323422785E+03   -0.24582E-03   -0.12473E-03 10512   0.236E-02    0.807E-02
DAV:  41    -0.660323544371E+03   -0.12159E-03   -0.10445E-03 10608   0.240E-02    0.839E-02
DAV:  42    -0.660323351197E+03    0.19317E-03   -0.18029E-03 10032   0.304E-02    0.829E-02
DAV:  43    -0.660323538712E+03   -0.18751E-03   -0.13625E-03  9984   0.257E-02    0.778E-02
DAV:  44    -0.660323542119E+03   -0.34079E-05   -0.20769E-02 10128   0.928E-02    0.607E-02
DAV:  45    -0.660323819219E+03   -0.27710E-03   -0.56830E-03 11328   0.566E-02    0.603E-02
DAV:  46    -0.660323935820E+03   -0.11660E-03   -0.95527E-05  9264   0.191E-02    0.580E-02
DAV:  47    -0.660323930980E+03    0.48401E-05   -0.91142E-05 11808   0.893E-03    0.565E-02
DAV:  48    -0.660323949851E+03   -0.18871E-04   -0.13003E-05  9984   0.502E-03    0.563E-02
DAV:  49    -0.660324004833E+03   -0.54982E-04   -0.28424E-04 10128   0.143E-02    0.653E-02
DAV:  50    -0.660324081234E+03   -0.76400E-04   -0.30065E-04 10704   0.133E-02    0.805E-02
DAV:  51    -0.660324167293E+03   -0.86059E-04   -0.91030E-04 10224   0.221E-02    0.107E-01
DAV:  52    -0.660324257009E+03   -0.89717E-04   -0.10738E-03 10512   0.246E-02    0.134E-01
DAV:  53    -0.660324350481E+03   -0.93472E-04   -0.65369E-03  9888   0.519E-02    0.197E-01
DAV:  54    -0.660324547849E+03   -0.19737E-03   -0.12792E-03 11664   0.290E-02    0.235E-01
DAV:  55    -0.660324608196E+03   -0.60347E-04   -0.73416E-03 10176   0.526E-02    0.301E-01
DAV:  56    -0.660324774904E+03   -0.16671E-03   -0.18956E-04  9504   0.215E-02    0.311E-01
DAV:  57    -0.660324762014E+03    0.12890E-04   -0.27353E-04 10128   0.132E-02    0.307E-01
DAV:  58    -0.660324754829E+03    0.71856E-05   -0.91348E-06  8880   0.488E-03    0.304E-01
DAV:  59    -0.660324773596E+03   -0.18767E-04   -0.10769E-04  9840   0.684E-03    0.310E-01
DAV:  60    -0.660324805136E+03   -0.31540E-04   -0.41349E-04 10272   0.130E-02    0.322E-01
DAV:  61    -0.660324680845E+03    0.12429E-03   -0.29928E-03 10128   0.356E-02    0.297E-01
DAV:  62    -0.660324743854E+03   -0.63009E-04   -0.81202E-03 10176   0.579E-02    0.324E-01
DAV:  63    -0.660324895467E+03   -0.15161E-03   -0.14137E-03 11088   0.327E-02    0.310E-01
DAV:  64    -0.660324869170E+03    0.26297E-04   -0.16449E-02  9984   0.793E-02    0.334E-01
DAV:  65    -0.660325184206E+03   -0.31504E-03   -0.80072E-04 10176   0.341E-02    0.334E-01
DAV:  66    -0.660325200240E+03   -0.16034E-04   -0.84186E-04  9168   0.217E-02    0.331E-01
DAV:  67    -0.660325215021E+03   -0.14781E-04   -0.11910E-03 10464   0.256E-02    0.325E-01
DAV:  68    -0.660325158459E+03    0.56563E-04   -0.35453E-03 10128   0.391E-02    0.306E-01
DAV:  69    -0.660325183484E+03   -0.25025E-04   -0.58604E-04 10176   0.204E-02    0.331E-01
DAV:  70    -0.660325198508E+03   -0.15024E-04   -0.59835E-04  9552   0.166E-02    0.332E-01
DAV:  71    -0.660325169250E+03    0.29259E-04   -0.80341E-04  9696   0.197E-02    0.332E-01
DAV:  72    -0.660325196039E+03   -0.26789E-04   -0.26123E-03 10128   0.325E-02    0.336E-01
DAV:  73    -0.660325273770E+03   -0.77731E-04   -0.77521E-04 11040   0.209E-02    0.348E-01
DAV:  74    -0.660324963304E+03    0.31047E-03   -0.14290E-02 10272   0.777E-02    0.311E-01
DAV:  75    -0.660324760682E+03    0.20262E-03   -0.72844E-03 10128   0.578E-02    0.298E-01
DAV:  76    -0.660324901508E+03   -0.14083E-03   -0.17665E-04  8928   0.226E-02    0.287E-01
DAV:  77    -0.660324955193E+03   -0.53685E-04   -0.34349E-03  9792   0.385E-02    0.284E-01
DAV:  78    -0.660324874767E+03    0.80426E-04   -0.58145E-03 10080   0.514E-02    0.258E-01
DAV:  79    -0.660324888233E+03   -0.13466E-04   -0.23130E-04 10320   0.183E-02    0.248E-01
DAV:  80    -0.660324876710E+03    0.11523E-04   -0.17927E-05 11376   0.559E-03    0.247E-01
DAV:  81    -0.660324883726E+03   -0.70162E-05   -0.51310E-06  8016   0.277E-03    0.239E-01
DAV:  82    -0.660324655392E+03    0.22833E-03   -0.47845E-02 10320   0.140E-01    0.232E-01
DAV:  83    -0.660325277940E+03   -0.62255E-03   -0.25546E-03  9744   0.530E-02    0.209E-01
DAV:  84    -0.660325412821E+03   -0.13488E-03   -0.44143E-03 10656   0.425E-02    0.211E-01
DAV:  85    -0.660325549225E+03   -0.13640E-03   -0.17294E-03  9456   0.304E-02    0.215E-01
DAV:  86    -0.660325647289E+03   -0.98064E-04   -0.55613E-05 10272   0.113E-02    0.215E-01
DAV:  87    -0.660324542450E+03    0.11048E-02   -0.52545E-02 10224   0.147E-01    0.943E-02
[...]
DAV:   1    -0.662467800276E+03    0.10510E+00   -0.27675E+02  7872   0.249E+01    0.103E+01
DAV:   2    -0.670201026448E+03   -0.77332E+01   -0.56583E+01 11232   0.732E+00    0.568E+01
DAV:   3    -0.663052722836E+03    0.71483E+01   -0.12170E+02 13200   0.525E+00    0.819E+00
DAV:   4    -0.663510761052E+03   -0.45804E+00   -0.20760E+00 12528   0.237E+00    0.685E+00
DAV:   5    -0.663636975233E+03   -0.12621E+00   -0.14856E+00 13824   0.202E+00    0.609E+00
DAV:   6    -0.663546679155E+03    0.90296E-01   -0.13051E+00 14208   0.159E+00    0.457E+00
DAV:   7    -0.663444556630E+03    0.10212E+00   -0.29675E-01 13296   0.121E+00    0.365E+00
DAV:   8    -0.663386468124E+03    0.58089E-01   -0.14397E-01 12096   0.773E-01    0.322E+00
DAV:   9    -0.663331202511E+03    0.55266E-01   -0.78064E-02 12288   0.487E-01    0.297E+00
DAV:  10    -0.663269866606E+03    0.61336E-01   -0.32429E-02 14208   0.441E-01    0.273E+00
DAV:  11    -0.663186849760E+03    0.83017E-01   -0.29689E-02 13680   0.575E-01    0.246E+00
DAV:  12    -0.663092024084E+03    0.94826E-01   -0.50372E-02 12816   0.749E-01    0.204E+00
DAV:  13    -0.663064520418E+03    0.27504E-01   -0.69161E-02 11808   0.429E-01    0.134E+00
DAV:  14    -0.663066097639E+03   -0.15772E-02   -0.11893E-02 11712   0.173E-01    0.136E+00
DAV:  15    -0.663065597161E+03    0.50048E-03   -0.11157E-03 14688   0.522E-02    0.136E+00
DAV:  16    -0.663065323576E+03    0.27358E-03   -0.22251E-04 12336   0.356E-02    0.141E+00
DAV:  17    -0.663065577567E+03   -0.25399E-03   -0.84377E-04 12288   0.545E-02    0.139E+00
DAV:  18    -0.663064714142E+03    0.86342E-03   -0.29102E-03 11424   0.758E-02    0.143E+00
DAV:  19    -0.663064780147E+03   -0.66005E-04   -0.13499E-03 10800   0.532E-02    0.149E+00
DAV:  20    -0.663066005044E+03   -0.12249E-02   -0.10377E-03 11232   0.515E-02    0.157E+00
DAV:  21    -0.663066396565E+03   -0.39152E-03   -0.15477E-04 11088   0.223E-02    0.157E+00
DAV:  22    -0.663066401238E+03   -0.46727E-05   -0.36631E-05 14400   0.927E-03    0.156E+00
DAV:  23    -0.663064077391E+03    0.23238E-02   -0.25544E-03 12480   0.999E-02    0.148E+00
DAV:  24    -0.663064639167E+03   -0.56178E-03   -0.74624E-04 11040   0.551E-02    0.147E+00
DAV:  25    -0.663065197015E+03   -0.55785E-03   -0.25181E-04 11760   0.230E-02    0.150E+00
DAV:  26    -0.663064839125E+03    0.35789E-03   -0.11159E-04 10608   0.176E-02    0.148E+00
DAV:  27    -0.663059980387E+03    0.48587E-02   -0.22829E-03 11376   0.677E-02    0.151E+00
DAV:  28    -0.663059250765E+03    0.72962E-03   -0.70048E-04 10560   0.412E-02    0.150E+00
DAV:  29    -0.663059336571E+03   -0.85805E-04   -0.59831E-05 11424   0.127E-02    0.150E+00
DAV:  30    -0.663059474368E+03   -0.13780E-03   -0.43713E-04 12048   0.356E-02    0.152E+00
DAV:  31    -0.663059327319E+03    0.14705E-03   -0.19190E-02 11088   0.117E-01    0.155E+00
DAV:  32    -0.663057269759E+03    0.20576E-02   -0.10598E-02 11616   0.110E-01    0.142E+00
DAV:  33    -0.663058796391E+03   -0.15266E-02   -0.28784E-03 12240   0.787E-02    0.137E+00
DAV:  34    -0.663066197587E+03   -0.74012E-02   -0.22180E-02 11376   0.158E-01    0.138E+00
DAV:  35    -0.663072066649E+03   -0.58691E-02   -0.43555E-03 10800   0.903E-02    0.137E+00
DAV:  36    -0.663069364076E+03    0.27026E-02   -0.44964E-03 11376   0.715E-02    0.144E+00
DAV:  37    -0.663072920169E+03   -0.35561E-02   -0.20021E-03 11856   0.526E-02    0.152E+00
DAV:  38    -0.663074299099E+03   -0.13789E-02   -0.35814E-04 11376   0.301E-02    0.150E+00
DAV:  39    -0.663082924047E+03   -0.86249E-02   -0.37779E-03 10800   0.691E-02    0.139E+00
DAV:  40    -0.663090700895E+03   -0.77768E-02   -0.13897E-02 11424   0.131E-01    0.145E+00
DAV:  41    -0.663114811796E+03   -0.24111E-01   -0.26564E-02 11232   0.185E-01    0.174E+00
DAV:  42    -0.663140110912E+03   -0.25299E-01   -0.22601E-02 12432   0.231E-01    0.237E+00
DAV:  43    -0.663136031733E+03    0.40792E-02   -0.30974E-03 10512   0.997E-02    0.226E+00
DAV:  44    -0.663137010668E+03   -0.97894E-03   -0.50540E-04 14352   0.293E-02    0.228E+00
DAV:  45    -0.663136609009E+03    0.40166E-03   -0.70058E-04 11040   0.286E-02    0.227E+00
DAV:  46    -0.663138206811E+03   -0.15978E-02   -0.17376E-04 10800   0.170E-02    0.229E+00
DAV:  47    -0.663141455235E+03   -0.32484E-02   -0.52194E-02 11520   0.223E-01    0.219E+00
DAV:  48    -0.663144560825E+03   -0.31056E-02   -0.34778E-03  9360   0.101E-01    0.224E+00
DAV:  49    -0.663145105857E+03   -0.54503E-03   -0.58191E-04 12048   0.388E-02    0.220E+00
DAV:  50    -0.663145769687E+03   -0.66383E-03   -0.25599E-03 10944   0.651E-02    0.214E+00
DAV:  51    -0.663145571749E+03    0.19794E-03   -0.32279E-04 11088   0.264E-02    0.215E+00
DAV:  52    -0.663143176201E+03    0.23955E-02   -0.79695E-04 11280   0.408E-02    0.200E+00
DAV:  53    -0.663142849599E+03    0.32660E-03   -0.33675E-04 10752   0.320E-02    0.197E+00
DAV:  54    -0.663142121081E+03    0.72852E-03   -0.10852E-04 11808   0.141E-02    0.197E+00
DAV:  55    -0.663141534739E+03    0.58634E-03   -0.69898E-04 10992   0.245E-02    0.194E+00
DAV:  56    -0.663141689514E+03   -0.15477E-03   -0.84552E-05 10656   0.130E-02    0.192E+00
DAV:  57    -0.663145184399E+03   -0.34949E-02   -0.36345E-01 11232   0.669E-01    0.370E+00
DAV:  58    -0.663150749981E+03   -0.55656E-02   -0.32359E-02  9744   0.259E-01    0.405E+00
DAV:  59    -0.663145485285E+03    0.52647E-02   -0.55702E-03 12480   0.915E-02    0.398E+00
DAV:  60    -0.663145190708E+03    0.29458E-03   -0.53801E-04 12288   0.325E-02    0.401E+00
DAV:  61    -0.663144469588E+03    0.72112E-03   -0.16944E-04 13632   0.144E-02    0.399E+00
DAV:  62    -0.663148546461E+03   -0.40769E-02   -0.52098E-02 10656   0.189E-01    0.350E+00
DAV:  63    -0.663152309610E+03   -0.37631E-02   -0.25125E-03  9264   0.871E-02    0.356E+00
DAV:  64    -0.663151607271E+03    0.70234E-03   -0.96615E-04 11856   0.325E-02    0.355E+00
DAV:  65    -0.663152886410E+03   -0.12791E-02   -0.31006E-02 10656   0.150E-01    0.385E+00
DAV:  66    -0.663152343781E+03    0.54263E-03   -0.23619E-03  9984   0.777E-02    0.376E+00
DAV:  67    -0.663145886868E+03    0.64569E-02   -0.22183E-02 10608   0.125E-01    0.333E+00
DAV:  68    -0.663149468097E+03   -0.35812E-02   -0.23033E-02 11136   0.136E-01    0.309E+00
DAV:  69    -0.663149316213E+03    0.15188E-03   -0.20086E-03  9984   0.624E-02    0.302E+00
DAV:  70    -0.663148617702E+03    0.69851E-03   -0.29805E-03 10608   0.504E-02    0.285E+00
DAV:  71    -0.663148785979E+03   -0.16828E-03   -0.46042E-03 10896   0.592E-02    0.277E+00
DAV:  72    -0.663142968008E+03    0.58180E-02   -0.28019E-02 10560   0.159E-01    0.229E+00
DAV:  73    -0.663143471143E+03   -0.50314E-03   -0.52830E-03 10320   0.912E-02    0.219E+00
DAV:  74    -0.663144569700E+03   -0.10986E-02   -0.40795E-04 10368   0.347E-02    0.220E+00
DAV:  75    -0.663143928276E+03    0.64142E-03   -0.81382E-04 11856   0.289E-02    0.210E+00
DAV:  76    -0.663144461543E+03   -0.53327E-03   -0.47196E-03 10080   0.652E-02    0.209E+00
DAV:  77    -0.663145976062E+03   -0.15145E-02   -0.71639E-03 10752   0.740E-02    0.225E+00
DAV:  78    -0.663145005072E+03    0.97099E-03   -0.86069E-04  9936   0.456E-02    0.221E+00
DAV:  79    -0.663144540432E+03    0.46464E-03   -0.18731E-03 11136   0.432E-02    0.214E+00
DAV:  80    -0.663145442681E+03   -0.90225E-03   -0.13575E-03 10368   0.377E-02    0.211E+00
DAV:  81    -0.663146360797E+03   -0.91812E-03   -0.10451E-02 11088   0.110E-01    0.174E+00
DAV:  82    -0.663153021813E+03   -0.66610E-02   -0.21962E-02 11328   0.160E-01    0.293E+00
DAV:  83    -0.663147249965E+03    0.57718E-02   -0.32950E-03 10272   0.875E-02    0.277E+00
DAV:  84    -0.663143373064E+03    0.38769E-02   -0.11286E-02 10656   0.110E-01    0.246E+00
DAV:  85    -0.663139153442E+03    0.42196E-02   -0.12848E-02 10272   0.113E-01    0.197E+00
DAV:  86    -0.663141254186E+03   -0.21007E-02   -0.66690E-04  9264   0.516E-02    0.197E+00
DAV:  87    -0.663145649831E+03   -0.43956E-02   -0.97941E-03 10704   0.109E-01    0.244E+00
DAV:  88    -0.663143823937E+03    0.18259E-02   -0.46291E-03 10464   0.816E-02    0.218E+00
DAV:  89    -0.663143862202E+03   -0.38265E-04   -0.13509E-03 10704   0.447E-02    0.215E+00
DAV:  90    -0.663143707674E+03    0.15453E-03   -0.58377E-04 11472   0.277E-02
  16 F= -.66314371E+03 E0= -.66309970E+03  d E =-.570807E+00  mag=   -20.7680
       N       E                     dE             d eps       ncg     rms          rms(c)
DAV:   1    -0.663002145976E+03    0.14172E+00   -0.96517E+01  7728   0.147E+01    0.576E+00
DAV:   2    -0.665071843336E+03   -0.20697E+01   -0.15254E+01 11520   0.399E+00    0.334E+01
DAV:   3    -0.663327009630E+03    0.17448E+01   -0.40226E+01 13296   0.280E+00    0.573E+00
DAV:   4    -0.663495950439E+03   -0.16894E+00   -0.78767E-01 12096   0.122E+00    0.579E+00
DAV:   5    -0.663543514440E+03   -0.47564E-01   -0.48244E-01 13536   0.107E+00    0.437E+00
DAV:   6    -0.663495309505E+03    0.48205E-01   -0.27721E-01 12480   0.805E-01    0.382E+00
DAV:   7    -0.663457270235E+03    0.38039E-01   -0.11506E-01 12384   0.695E-01    0.338E+00
DAV:   8    -0.663430058487E+03    0.27212E-01   -0.52069E-02 13536   0.387E-01    0.297E+00
DAV:   9    -0.663399103210E+03    0.30955E-01   -0.16839E-02 13536   0.302E-01    0.285E+00
DAV:  10    -0.663357378212E+03    0.41725E-01   -0.99913E-03 13152   0.304E-01    0.268E+00
DAV:  11    -0.663321988288E+03    0.35390E-01   -0.98190E-03 13056   0.261E-01    0.241E+00
DAV:  12    -0.663305272830E+03    0.16715E-01   -0.82038E-03 11856   0.140E-01    0.220E+00
DAV:  13    -0.663306999318E+03   -0.17265E-02   -0.12001E-03 12000   0.524E-02    0.220E+00
DAV:  14    -0.663306549735E+03    0.44958E-03   -0.17427E-04 14496   0.170E-02    0.219E+00
DAV:  15    -0.663303208067E+03    0.33417E-02   -0.25089E-04 13488   0.203E-02    0.214E+00
DAV:  16    -0.663308042468E+03   -0.48344E-02   -0.80337E-04 11472   0.380E-02    0.218E+00
DAV:  17    -0.663288898277E+03    0.19144E-01   -0.10209E-02 13296   0.112E-01    0.190E+00
DAV:  18    -0.663256708608E+03    0.32190E-01   -0.35076E-02 13344   0.296E-01    0.113E+00
DAV:  19    -0.663258497737E+03   -0.17891E-02   -0.63730E-03 10368   0.125E-01    0.111E+00
DAV:  20    -0.663253733806E+03    0.47639E-02   -0.49233E-03 12576   0.927E-02    0.935E-01
DAV:  21    -0.663252835696E+03    0.89811E-03   -0.62268E-04 12096   0.389E-02    0.936E-01
DAV:  22    -0.663250542041E+03    0.22937E-02   -0.36032E-03 12384   0.839E-02    0.955E-01
DAV:  23    -0.663250892455E+03   -0.35041E-03   -0.35017E-03 12432   0.822E-02    0.130E+00
DAV:  24    -0.663249601647E+03    0.12908E-02   -0.14376E-03 10992   0.734E-02    0.100E+00
DAV:  25    -0.663251258033E+03   -0.16564E-02   -0.24340E-03 12144   0.797E-02    0.831E-01
DAV:  26    -0.663252073253E+03   -0.81522E-03   -0.37696E-04 10224   0.341E-02    0.837E-01
DAV:  27    -0.663252198865E+03   -0.12561E-03   -0.79395E-04 12240   0.404E-02    0.880E-01
DAV:  28    -0.663252062312E+03    0.13655E-03   -0.53865E-05 10368   0.142E-02    0.882E-01
DAV:  29    -0.663251553721E+03    0.50859E-03   -0.17256E-04 13344   0.147E-02    0.879E-01
DAV:  30    -0.663251225842E+03    0.32788E-03   -0.77672E-04 11472   0.453E-02    0.831E-01
DAV:  31    -0.663252001100E+03   -0.77526E-03   -0.19489E-03 11088   0.577E-02    0.911E-01
DAV:  32    -0.663252044481E+03   -0.43381E-04   -0.13436E-03 11472   0.500E-02    0.861E-01
DAV:  33    -0.663251980640E+03    0.63842E-04   -0.54607E-04 12000   0.268E-02    0.814E-01
DAV:  34    -0.663251957168E+03    0.23472E-04   -0.42502E-05 11424   0.106E-02    0.807E-01
DAV:  35    -0.663251129166E+03    0.82800E-03   -0.10111E-03 11280   0.369E-02    0.854E-01
DAV:  36    -0.663250742939E+03    0.38623E-03   -0.59056E-04 12192   0.312E-02    0.907E-01
DAV:  37    -0.663249305574E+03    0.14374E-02   -0.12547E-03 10848   0.436E-02    0.872E-01
DAV:  38    -0.663248985725E+03    0.31985E-03   -0.10192E-03 11760   0.365E-02    0.869E-01
DAV:  39    -0.663248850114E+03    0.13561E-03   -0.78605E-05 11088   0.149E-02    0.861E-01
DAV:  40    -0.663249178820E+03   -0.32871E-03   -0.31178E-04 11040   0.172E-02    0.843E-01
DAV:  41    -0.663249918887E+03   -0.74007E-03   -0.30386E-04 10704   0.177E-02    0.834E-01
DAV:  42    -0.663250673920E+03   -0.75503E-03   -0.33978E-04 11040   0.215E-02    0.811E-01
DAV:  43    -0.663251951307E+03   -0.12774E-02   -0.49096E-03 10800   0.558E-02    0.734E-01
DAV:  44    -0.663251740323E+03    0.21098E-03   -0.49833E-04 10992   0.288E-02    0.743E-01
DAV:  45    -0.663251935727E+03   -0.19540E-03   -0.63363E-04 10992   0.279E-02    0.693E-01
DAV:  46    -0.663251959865E+03   -0.24138E-04   -0.14717E-04 11376   0.158E-02    0.690E-01
DAV:  47    -0.663343500366E+03   -0.91541E-01   -0.38913E-01 12384   0.439E-01    0.812E+00
DAV:  48    -0.663326664808E+03    0.16836E-01   -0.15323E-02  9264   0.225E-01    0.834E+00
DAV:  49    -0.663316128223E+03    0.10537E-01   -0.21086E-03 12336   0.661E-02    0.830E+00
DAV:  50    -0.663307554189E+03    0.85740E-02   -0.11170E-03 13248   0.245E-02    0.803E+00
DAV:  51    -0.663309406420E+03   -0.18522E-02   -0.68905E-05 11424   0.992E-03    0.809E+00
DAV:  52    -0.663272048645E+03    0.37358E-01   -0.31670E-02 12720   0.165E-01    0.605E+00
DAV:  53    -0.663282206350E+03   -0.10158E-01   -0.26052E-03  9216   0.830E-02    0.595E+00
DAV:  54    -0.663282135160E+03    0.71190E-04   -0.80064E-04 11952   0.348E-02    0.578E+00
DAV:  55    -0.663289455899E+03   -0.73207E-02   -0.29103E-03 10656   0.415E-02    0.614E+00
DAV:  56    -0.663283226228E+03    0.62297E-02   -0.20511E-03 10896   0.382E-02    0.582E+00
DAV:  57    -0.663283763957E+03   -0.53773E-03   -0.53114E-03 10320   0.708E-02    0.568E+00
DAV:  58    -0.663291361529E+03   -0.75976E-02   -0.58787E-03 11232   0.663E-02    0.622E+00
DAV:  59    -0.663289869912E+03    0.14916E-02   -0.35507E-04  9936   0.259E-02    0.621E+00
DAV:  60    -0.663288705904E+03    0.11640E-02   -0.82653E-04 11472   0.259E-02    0.620E+00
DAV:  61    -0.663287596803E+03    0.11091E-02   -0.13069E-03 10512   0.250E-02    0.606E+00
DAV:  62    -0.663245285899E+03    0.42311E-01   -0.15501E-01 11856   0.258E-01    0.230E+00
DAV:  63    -0.663258233489E+03   -0.12948E-01   -0.11610E-02  9792   0.157E-01    0.225E+00
DAV:  64    -0.663258109631E+03    0.12386E-03   -0.68243E-03 11088   0.914E-02    0.218E+00
DAV:  65    -0.663257586995E+03    0.52264E-03   -0.10502E-03 11040   0.435E-02    0.201E+00
DAV:  66    -0.663257908835E+03   -0.32184E-03   -0.22550E-04 12144   0.195E-02    0.197E+00
DAV:  67    -0.663255927969E+03    0.19809E-02   -0.31434E-03 11088   0.566E-02    0.167E+00
DAV:  68    -0.663256711642E+03   -0.78367E-03   -0.21123E-04 10320   0.265E-02    0.163E+00
DAV:  69    -0.663257500719E+03   -0.78908E-03   -0.25265E-03 10944   0.554E-02    0.162E+00
DAV:  70    -0.663256021418E+03    0.14793E-02   -0.24957E-03 10656   0.508E-02    0.137E+00
DAV:  71    -0.663256332744E+03   -0.31133E-03   -0.22840E-03 10704   0.492E-02    0.133E+00
DAV:  72    -0.663254697946E+03    0.16348E-02   -0.13691E-02 10608   0.101E-01    0.108E+00
DAV:  73    -0.663255046076E+03   -0.34813E-03   -0.27738E-03 10752   0.697E-02    0.920E-01
DAV:  74    -0.663255238959E+03   -0.19288E-03   -0.43767E-03 10752   0.786E-02    0.664E-01
DAV:  75    -0.663255696019E+03   -0.45706E-03   -0.89464E-03 10800   0.105E-01    0.666E-01
DAV:  76    -0.663255710993E+03   -0.14974E-04   -0.22631E-03 11184   0.602E-02    0.688E-01
DAV:  77    -0.663255759853E+03   -0.48860E-04   -0.84498E-04 11808   0.311E-02    0.695E-01
DAV:  78    -0.663255295294E+03    0.46456E-03   -0.30283E-03 10560   0.567E-02    0.728E-01
DAV:  79    -0.663254926324E+03    0.36897E-03   -0.10533E-03 11568   0.367E-02    0.733E-01
DAV:  80    -0.663254831743E+03    0.94581E-04   -0.53224E-04 12096   0.240E-02    0.726E-01
DAV:  81    -0.663254817274E+03    0.14469E-04   -0.85663E-04 10656   0.296E-02    0.737E-01
DAV:  82    -0.663254418736E+03    0.39854E-03   -0.42129E-04 11520   0.258E-02    0.750E-01
DAV:  83    -0.663254350820E+03    0.67916E-04   -0.34409E-05 11520   0.103E-02    0.753E-01
DAV:  84    -0.663254187852E+03    0.16297E-03   -0.13191E-04 10848   0.129E-02    0.758E-01
DAV:  85    -0.663254021747E+03    0.16611E-03   -0.17210E-04 10896   0.130E-02    0.756E-01
DAV:  86    -0.663253579150E+03    0.44260E-03   -0.14628E-03 10464   0.351E-02    0.750E-01
DAV:  87    -0.663254619443E+03   -0.10403E-02   -0.29041E-03 10320   0.610E-02    0.761E-01
DAV:  88    -0.663255458948E+03   -0.83951E-03   -0.72876E-04 10896   0.409E-02    0.726E-01
DAV:  89    -0.663255843940E+03   -0.38499E-03   -0.31927E-04 10368   0.191E-02    0.716E-01
DAV:  90    -0.663256916652E+03   -0.10727E-02   -0.10367E-03  9936   0.290E-02
  17 F= -.66325692E+03 E0= -.66322345E+03  d E =-.684016E+00  mag=   -20.7405
       N       E                     dE             d eps       ncg     rms          rms(c)
DAV:   1    -0.663304905206E+03   -0.49061E-01   -0.11480E+02  8064   0.160E+01    0.752E+00
DAV:   2    -0.665361966457E+03   -0.20571E+01   -0.15367E+01 11808   0.419E+00    0.351E+01
DAV:   3    -0.663847186190E+03    0.15148E+01   -0.61061E+01 13680   0.401E+00    0.746E+00
DAV:   4    -0.664407768636E+03   -0.56058E+00   -0.12761E+00 13296   0.233E+00    0.647E+00
DAV:   5    -0.664598303005E+03   -0.19053E+00   -0.53997E-01 13296   0.175E+00    0.600E+00
DAV:   6    -0.664471832510E+03    0.12647E+00   -0.25829E-01 13584   0.105E+00    0.542E+00
DAV:   7    -0.664398574382E+03    0.73258E-01   -0.12644E-01 13248   0.624E-01    0.486E+00
DAV:   8    -0.664317738468E+03    0.80836E-01   -0.45662E-02 12480   0.523E-01    0.443E+00
DAV:   9    -0.664219753582E+03    0.97985E-01   -0.31332E-02 12720   0.487E-01    0.407E+00
DAV:  10    -0.664162621609E+03    0.57132E-01   -0.20316E-02 12432   0.338E-01    0.389E+00
DAV:  11    -0.664137508542E+03    0.25113E-01   -0.68592E-03 11712   0.178E-01    0.383E+00
DAV:  12    -0.664080972970E+03    0.56536E-01   -0.54094E-03 14400   0.289E-01    0.370E+00
DAV:  13    -0.663959757295E+03    0.12122E+00   -0.22528E-02 13680   0.601E-01    0.343E+00
DAV:  14    -0.663795256680E+03    0.16450E+00   -0.56328E-02 13200   0.910E-01    0.306E+00
DAV:  15    -0.663764041570E+03    0.31215E-01   -0.49189E-02 10848   0.329E-01    0.292E+00
DAV:  16    -0.663697814475E+03    0.66227E-01   -0.11437E-02 14016   0.421E-01    0.276E+00
DAV:  17    -0.663596922968E+03    0.10089E+00   -0.66884E-02 13392   0.764E-01    0.198E+00
DAV:  18    -0.663594883007E+03    0.20400E-02   -0.27552E-02 11088   0.220E-01    0.183E+00
DAV:  19    -0.663598980796E+03   -0.40978E-02   -0.27824E-03 15168   0.119E-01    0.185E+00
DAV:  20    -0.663582131500E+03    0.16849E-01   -0.76006E-03 13104   0.254E-01    0.167E+00
DAV:  21    -0.663581886037E+03    0.24546E-03   -0.13563E-03 11760   0.537E-02    0.166E+00
DAV:  22    -0.663581947179E+03   -0.61142E-04   -0.18792E-04 15168   0.201E-02    0.165E+00
DAV:  23    -0.663576723564E+03    0.52236E-02   -0.63975E-03 13248   0.163E-01    0.171E+00
DAV:  24    -0.663576617118E+03    0.10645E-03   -0.78290E-04 10752   0.655E-02    0.167E+00
DAV:  25    -0.663577279622E+03   -0.66250E-03   -0.20450E-04 12000   0.252E-02    0.167E+00
DAV:  26    -0.663576291276E+03    0.98835E-03   -0.42937E-04 12528   0.476E-02    0.168E+00
DAV:  27    -0.663576137883E+03    0.15339E-03   -0.49646E-05 11904   0.108E-02    0.168E+00
DAV:  28    -0.663575444492E+03    0.69339E-03   -0.25459E-04 12864   0.221E-02    0.168E+00
DAV:  29    -0.663574458887E+03    0.98561E-03   -0.78331E-04 13056   0.482E-02    0.167E+00
DAV:  30    -0.663572743469E+03    0.17154E-02   -0.11366E-03 12528   0.585E-02    0.154E+00
DAV:  31    -0.663571901955E+03    0.84151E-03   -0.35823E-03 13008   0.885E-02    0.154E+00
