<?xml version="1.0" encoding="ISO-8859-1"?>
<modeling>
 <generator>
  <i name="program" type="string">vasp </i>
  <i name="version" type="string">6.4.3  </i>
  <i name="subversion" type="string">19Mar24 (build Mar 01 2025 17:53:50) complex                          parallel </i>
  <i name="platform" type="string">Shaheen </i>
  <i name="date" type="string">2025 04 20 </i>
  <i name="time" type="string">05:08:13 </i>
 </generator>
 <incar>
  <i type="int" name="ISTART">     1</i>
  <i type="string" name="PREC">Accurate   (Precision level: Normal or Accurate, set Accurate when perform structure lattice relaxation calculation)</i>
  <i type="logical" name="ADDGRID"> T  </i>
  <i type="int" name="ISPIN">     2</i>
  <i type="int" name="NELM">    90</i>
  <i type="int" name="NELMIN">     6</i>
  <i type="int" name="IBRION">     2</i>
  <i name="EDIFF">      0.00000100</i>
  <i name="EDIFFG">     -0.02000000</i>
  <i type="int" name="NSW">   300</i>
  <i type="int" name="ISIF">     2</i>
  <i name="ENCUT">    520.00000000</i>
  <v name="MAGMOM">      0.60000000      0.60000000      0.60000000      0.60000000      0.60000000      0.60000000      1.00000000      1.00000000      1.00000000      1.00000000      1.00000000      1.00000000      1.00000000      1.00000000      1.00000000      1.00000000      1.00000000      1.00000000      1.00000000      1.00000000
      1.00000000      1.00000000      1.00000000      1.00000000      1.00000000      1.00000000      1.00000000      0.60000000      0.60000000      0.60000000      0.60000000      0.60000000      0.60000000      0.60000000      0.60000000      0.60000000      0.60000000      0.60000000      0.60000000      0.60000000
      0.60000000      0.60000000      0.60000000      0.60000000      0.60000000      0.60000000      0.60000000      0.60000000      0.60000000      0.60000000      0.60000000      0.60000000      0.60000000      0.60000000      0.60000000      0.60000000      0.60000000      0.60000000      0.60000000      0.60000000
      0.60000000      0.60000000      0.60000000      0.60000000      0.60000000      0.60000000      0.60000000      0.60000000      0.60000000      0.60000000      0.60000000      0.60000000      0.60000000      0.60000000      0.60000000      0.60000000      0.60000000      0.60000000      0.60000000      0.60000000
      0.60000000      0.60000000      0.60000000      0.60000000      0.60000000      0.60000000      0.60000000      0.60000000      0.60000000      0.60000000      0.60000000      0.60000000      0.60000000      0.60000000      0.60000000      0.60000000      0.60000000      0.60000000      0.60000000</v>
  <i type="logical" name="LREAL"> F  </i>
  <i type="int" name="ISMEAR">     0</i>
  <i name="SIGMA">      0.05000000</i>
  <i type="int" name="LMAXMIX">     6</i>
  <i type="logical" name="LWAVE"> F  </i>
  <i type="logical" name="LCHARG"> F  </i>
  <i type="logical" name="LASPH"> T  </i>
  <i type="logical" name="LDAU"> T  </i>
  <i type="int" name="LDAUTYPE">     2</i>
  <v type="int" name="LDAUL">     2     3    -1</v>
  <v name="LDAUU">      2.00000000      5.00000000      0.00000000</v>
  <v name="LDAUJ">      0.00000000      0.00000000      0.00000000</v>
 </incar>
 <primitive_cell>
  <structure name="primitive_cell" >
   <crystal>
    <varray name="basis" >
     <v>      11.59820000       0.00000000       0.00000000 </v>
     <v>      -5.79910000      10.04433584       0.00000000 </v>
     <v>       0.00000000       0.00000000      21.04820000 </v>
    </varray>
    <i name="volume">   2452.03565189 </i>
    <varray name="rec_basis" >
     <v>       0.08622028       0.04977930       0.00000000 </v>
     <v>       0.00000000       0.09955860       0.00000000 </v>
     <v>       0.00000000       0.00000000       0.04751000 </v>
    </varray>
   </crystal>
   <varray name="positions" >
    <v>       0.00000000       0.00000000       0.45993000 </v>
    <v>       0.66667000       0.00000000       0.45993000 </v>
    <v>       1.00000000       0.33333000       0.45993000 </v>
    <v>       0.33333000       0.33333000       0.45993000 </v>
    <v>       0.33333000       0.66667000       0.45993000 </v>
    <v>       0.66667000       0.66667000       0.45993000 </v>
    <v>       0.22222000       0.11111000       0.30996000 </v>
    <v>       0.11111000       0.22222000       0.15999000 </v>
    <v>       0.33333000       0.00000000       0.45993000 </v>
    <v>       0.55556000       0.11111000       0.30996000 </v>
    <v>       0.44444000       0.22222000       0.15999000 </v>
    <v>       0.88889000       0.11111000       0.30996000 </v>
    <v>       0.77778000       0.22222000       0.15999000 </v>
    <v>       0.22222000       0.44444000       0.30996000 </v>
    <v>       0.11111000       0.55556000       0.15999000 </v>
    <v>       0.55556000       0.44444000       0.30996000 </v>
    <v>       0.44444000       0.55556000       0.15999000 </v>
    <v>       0.66667000       0.33333000       0.45993000 </v>
    <v>       0.88889000       0.44444000       0.30996000 </v>
    <v>       0.77778000       0.55556000       0.15999000 </v>
    <v>       1.00000000       0.66667000       0.45993000 </v>
    <v>       0.22222000       0.77778000       0.30996000 </v>
    <v>       0.11111000       0.88889000       0.15999000 </v>
    <v>       0.55556000       0.77778000       0.30996000 </v>
    <v>       0.44444000       0.88889000       0.15999000 </v>
    <v>       0.88889000       0.77778000       0.30996000 </v>
    <v>       0.77778000       0.88889000       0.15999000 </v>
    <v>       0.00000000       0.00000000       0.12250000 </v>
    <v>       0.00000000       0.00000000       0.57241000 </v>
    <v>       0.11111000       0.22222000       0.27247000 </v>
    <v>       0.22222000       0.11111000       0.42244000 </v>
    <v>       0.11111000       0.22222000       0.04751000 </v>
    <v>       0.11111000       0.22222000       0.49742000 </v>
    <v>       0.00000000       0.00000000       0.34745000 </v>
    <v>       0.22222000       0.11111000       0.19748000 </v>
    <v>       0.33333000       0.00000000       0.12250000 </v>
    <v>       0.33333000       0.00000000       0.57241000 </v>
    <v>       0.44444000       0.22222000       0.27247000 </v>
    <v>       0.55556000       0.11111000       0.42244000 </v>
    <v>       0.44444000       0.22222000       0.04751000 </v>
    <v>       0.44444000       0.22222000       0.49742000 </v>
    <v>       0.33333000       0.00000000       0.34745000 </v>
    <v>       0.55556000       0.11111000       0.19748000 </v>
    <v>       0.66667000       0.00000000       0.12250000 </v>
    <v>       0.66667000       0.00000000       0.57241000 </v>
    <v>       0.77778000       0.22222000       0.27247000 </v>
    <v>       0.88889000       0.11111000       0.42244000 </v>
    <v>       0.77778000       0.22222000       0.04751000 </v>
    <v>       0.77778000       0.22222000       0.49742000 </v>
    <v>       0.66667000       0.00000000       0.34745000 </v>
    <v>       0.88889000       0.11111000       0.19748000 </v>
    <v>       1.00000000       0.33333000       0.12250000 </v>
    <v>       1.00000000       0.33333000       0.57241000 </v>
    <v>       0.11111000       0.55556000       0.27247000 </v>
    <v>       0.22222000       0.44444000       0.42244000 </v>
    <v>       0.11111000       0.55556000       0.04751000 </v>
    <v>       0.11111000       0.55556000       0.49742000 </v>
    <v>       1.00000000       0.33333000       0.34745000 </v>
    <v>       0.22222000       0.44444000       0.19748000 </v>
    <v>       0.33333000       0.33333000       0.12250000 </v>
    <v>       0.33333000       0.33333000       0.57241000 </v>
    <v>       0.44444000       0.55556000       0.27247000 </v>
    <v>       0.55556000       0.44444000       0.42244000 </v>
    <v>       0.44444000       0.55556000       0.04751000 </v>
    <v>       0.44444000       0.55556000       0.49742000 </v>
    <v>       0.33333000       0.33333000       0.34745000 </v>
    <v>       0.55556000       0.44444000       0.19748000 </v>
    <v>       0.66667000       0.33333000       0.12250000 </v>
    <v>       0.66667000       0.33333000       0.57241000 </v>
    <v>       0.77778000       0.55556000       0.27247000 </v>
    <v>       0.88889000       0.44444000       0.42244000 </v>
    <v>       0.77778000       0.55556000       0.04751000 </v>
    <v>       0.77778000       0.55556000       0.49742000 </v>
    <v>       0.66667000       0.33333000       0.34745000 </v>
    <v>       0.88889000       0.44444000       0.19748000 </v>
    <v>       1.00000000       0.66667000       0.12250000 </v>
    <v>       1.00000000       0.66667000       0.57241000 </v>
    <v>       0.11111000       0.88889000       0.27247000 </v>
    <v>       0.22222000       0.77778000       0.42244000 </v>
    <v>       0.11111000       0.88889000       0.04751000 </v>
    <v>       0.11111000       0.88889000       0.49742000 </v>
    <v>       1.00000000       0.66667000       0.34745000 </v>
    <v>       0.22222000       0.77778000       0.19748000 </v>
    <v>       0.33333000       0.66667000       0.12250000 </v>
    <v>       0.33333000       0.66667000       0.57241000 </v>
    <v>       0.44444000       0.88889000       0.27247000 </v>
    <v>       0.55556000       0.77778000       0.42244000 </v>
    <v>       0.44444000       0.88889000       0.04751000 </v>
    <v>       0.44444000       0.88889000       0.49742000 </v>
    <v>       0.33333000       0.66667000       0.34745000 </v>
    <v>       0.55556000       0.77778000       0.19748000 </v>
    <v>       0.66667000       0.66667000       0.12250000 </v>
    <v>       0.66667000       0.66667000       0.57241000 </v>
    <v>       0.77778000       0.88889000       0.27247000 </v>
    <v>       0.88889000       0.77778000       0.42244000 </v>
    <v>       0.77778000       0.88889000       0.04751000 </v>
    <v>       0.77778000       0.88889000       0.49742000 </v>
    <v>       0.66667000       0.66667000       0.34745000 </v>
    <v>       0.88889000       0.77778000       0.19748000 </v>
   </varray>
  </structure>
  <varray name="primitive_index" >
   <v type="int" >        1 </v>
   <v type="int" >        2 </v>
   <v type="int" >        3 </v>
   <v type="int" >        4 </v>
   <v type="int" >        5 </v>
   <v type="int" >        6 </v>
   <v type="int" >        7 </v>
   <v type="int" >        8 </v>
   <v type="int" >        9 </v>
   <v type="int" >       10 </v>
   <v type="int" >       11 </v>
   <v type="int" >       12 </v>
   <v type="int" >       13 </v>
   <v type="int" >       14 </v>
   <v type="int" >       15 </v>
   <v type="int" >       16 </v>
   <v type="int" >       17 </v>
   <v type="int" >       18 </v>
   <v type="int" >       19 </v>
   <v type="int" >       20 </v>
   <v type="int" >       21 </v>
   <v type="int" >       22 </v>
   <v type="int" >       23 </v>
   <v type="int" >       24 </v>
   <v type="int" >       25 </v>
   <v type="int" >       26 </v>
   <v type="int" >       27 </v>
   <v type="int" >       28 </v>
   <v type="int" >       29 </v>
   <v type="int" >       30 </v>
   <v type="int" >       31 </v>
   <v type="int" >       32 </v>
   <v type="int" >       33 </v>
   <v type="int" >       34 </v>
   <v type="int" >       35 </v>
   <v type="int" >       36 </v>
   <v type="int" >       37 </v>
   <v type="int" >       38 </v>
   <v type="int" >       39 </v>
   <v type="int" >       40 </v>
   <v type="int" >       41 </v>
   <v type="int" >       42 </v>
   <v type="int" >       43 </v>
   <v type="int" >       44 </v>
   <v type="int" >       45 </v>
   <v type="int" >       46 </v>
   <v type="int" >       47 </v>
   <v type="int" >       48 </v>
   <v type="int" >       49 </v>
   <v type="int" >       50 </v>
   <v type="int" >       51 </v>
   <v type="int" >       52 </v>
   <v type="int" >       53 </v>
   <v type="int" >       54 </v>
   <v type="int" >       55 </v>
   <v type="int" >       56 </v>
   <v type="int" >       57 </v>
   <v type="int" >       58 </v>
   <v type="int" >       59 </v>
   <v type="int" >       60 </v>
   <v type="int" >       61 </v>
   <v type="int" >       62 </v>
   <v type="int" >       63 </v>
   <v type="int" >       64 </v>
   <v type="int" >       65 </v>
   <v type="int" >       66 </v>
   <v type="int" >       67 </v>
   <v type="int" >       68 </v>
   <v type="int" >       69 </v>
   <v type="int" >       70 </v>
   <v type="int" >       71 </v>
   <v type="int" >       72 </v>
   <v type="int" >       73 </v>
   <v type="int" >       74 </v>
   <v type="int" >       75 </v>
   <v type="int" >       76 </v>
   <v type="int" >       77 </v>
   <v type="int" >       78 </v>
   <v type="int" >       79 </v>
   <v type="int" >       80 </v>
   <v type="int" >       81 </v>
   <v type="int" >       82 </v>
   <v type="int" >       83 </v>
   <v type="int" >       84 </v>
   <v type="int" >       85 </v>
   <v type="int" >       86 </v>
   <v type="int" >       87 </v>
   <v type="int" >       88 </v>
   <v type="int" >       89 </v>
   <v type="int" >       90 </v>
   <v type="int" >       91 </v>
   <v type="int" >       92 </v>
   <v type="int" >       93 </v>
   <v type="int" >       94 </v>
   <v type="int" >       95 </v>
   <v type="int" >       96 </v>
   <v type="int" >       97 </v>
   <v type="int" >       98 </v>
   <v type="int" >       99 </v>
  </varray>
 </primitive_cell>
 <kpoints>
  <generation param="Monkhorst-Pack">
   <v type="int" name="divisions">       3        3        1 </v>
   <v name="usershift">      0.00000000       0.00000000       0.00000000 </v>
   <v name="genvec1">      0.33333333      -0.00000000       0.00000000 </v>
   <v name="genvec2">      0.00000000       0.33333333       0.00000000 </v>
   <v name="genvec3">      0.00000000       0.00000000       1.00000000 </v>
   <v name="shift">      0.00000000       0.00000000       0.00000000 </v>
  </generation>
  <varray name="kpointlist" >
   <v>       0.00000000       0.00000000       0.00000000 </v>
   <v>       0.33333333      -0.00000000       0.00000000 </v>
   <v>      -0.33333333       0.33333333       0.00000000 </v>
   <v>       0.33333333       0.33333333       0.00000000 </v>
  </varray>
  <varray name="weights" >
   <v>       0.11111111 </v>
   <v>       0.44444444 </v>
   <v>       0.22222222 </v>
   <v>       0.22222222 </v>
  </varray>
 </kpoints>
 <parameters>
  <separator name="general" >
   <i type="string" name="SYSTEM">unknown system</i>
   <i type="logical" name="LCOMPAT"> F  </i>
  </separator>
  <separator name="electronic" >
   <i type="string" name="PREC">accura</i>
   <i name="ENMAX">    520.00000000</i>
   <i name="ENAUG">    605.39200000</i>
   <i name="EDIFF">      0.00000100</i>
   <i type="int" name="IALGO">    38</i>
   <i type="int" name="IWAVPR">    11</i>
   <i type="int" name="NBANDS">   480</i>
   <i type="int" name="NBANDSLOW">    -1</i>
   <i type="int" name="NBANDSHIGH">    -1</i>
   <i name="NELECT">    738.00000000</i>
   <i type="int" name="TURBO">     0</i>
   <i type="int" name="IRESTART">     0</i>
   <i type="int" name="NREBOOT">     0</i>
   <i type="int" name="NMIN">     0</i>
   <i name="EREF">      0.00000000</i>
   <separator name="electronic smearing" >
    <i type="int" name="ISMEAR">     0</i>
    <i name="SIGMA">      0.05000000</i>
    <i name="KSPACING">      0.50000000</i>
    <i type="logical" name="KGAMMA"> T  </i>
    <i type="logical" name="KBLOWUP"> T  </i>
   </separator>
   <separator name="electronic projectors" >
    <i type="logical" name="LREAL"> F  </i>
    <v name="ROPT">      0.00000000      0.00000000      0.00000000</v>
    <i type="int" name="LMAXPAW">  -100</i>
    <i type="int" name="LMAXMIX">     6</i>
    <i type="logical" name="NLSPLINE"> F  </i>
   </separator>
   <separator name="electronic startup" >
    <i type="int" name="ISTART">     0</i>
    <i type="int" name="ICHARG">     2</i>
    <i type="int" name="INIWAV">     1</i>
   </separator>
   <separator name="electronic spin" >
    <i type="int" name="ISPIN">     2</i>
    <i type="logical" name="LNONCOLLINEAR"> F  </i>
    <v name="MAGMOM">      0.60000000      0.60000000      0.60000000      0.60000000      0.60000000      0.60000000      1.00000000      1.00000000      1.00000000      1.00000000      1.00000000      1.00000000      1.00000000      1.00000000      1.00000000      1.00000000      1.00000000      1.00000000      1.00000000      1.00000000
      1.00000000      1.00000000      1.00000000      1.00000000      1.00000000      1.00000000      1.00000000      0.60000000      0.60000000      0.60000000      0.60000000      0.60000000      0.60000000      0.60000000      0.60000000      0.60000000      0.60000000      0.60000000      0.60000000      0.60000000
      0.60000000      0.60000000      0.60000000      0.60000000      0.60000000      0.60000000      0.60000000      0.60000000      0.60000000      0.60000000      0.60000000      0.60000000      0.60000000      0.60000000      0.60000000      0.60000000      0.60000000      0.60000000      0.60000000      0.60000000
      0.60000000      0.60000000      0.60000000      0.60000000      0.60000000      0.60000000      0.60000000      0.60000000      0.60000000      0.60000000      0.60000000      0.60000000      0.60000000      0.60000000      0.60000000      0.60000000      0.60000000      0.60000000      0.60000000      0.60000000
      0.60000000      0.60000000      0.60000000      0.60000000      0.60000000      0.60000000      0.60000000      0.60000000      0.60000000      0.60000000      0.60000000      0.60000000      0.60000000      0.60000000      0.60000000      0.60000000      0.60000000      0.60000000      0.60000000</v>
    <i name="NUPDOWN">     -1.00000000</i>
    <i type="logical" name="LSORBIT"> F  </i>
    <v name="SAXIS">      0.00000000      0.00000000      1.00000000</v>
    <i type="logical" name="LSPIRAL"> F  </i>
    <v name="QSPIRAL">      0.00000000      0.00000000      0.00000000</v>
    <i type="logical" name="LZEROZ"> F  </i>
   </separator>
   <separator name="electronic exchange-correlation" >
    <i type="logical" name="LASPH"> T  </i>
   </separator>
   <separator name="electronic convergence" >
    <i type="int" name="NELM">    90</i>
    <i type="int" name="NELMDL">     0</i>
    <i type="int" name="NELMIN">     6</i>
    <i name="ENINI">    520.00000000</i>
    <separator name="electronic convergence detail" >
     <i type="logical" name="LDIAG"> T  </i>
     <i type="logical" name="LSUBROT"> F  </i>
     <i name="WEIMIN">      0.00100000</i>
     <i name="EBREAK">      0.00000000</i>
     <i name="DEPER">      0.30000000</i>
     <i type="int" name="NRMM">     4</i>
     <i name="TIME">      0.40000000</i>
    </separator>
   </separator>
   <separator name="electronic mixer" >
    <i name="AMIX">      0.40000000</i>
    <i name="BMIX">      1.00000000</i>
    <i name="AMIN">      0.10000000</i>
    <i name="AMIX_MAG">      1.60000000</i>
    <i name="BMIX_MAG">      1.00000000</i>
    <separator name="electronic mixer details" >
     <i type="int" name="IMIX">     4</i>
     <i type="logical" name="MIXFIRST"> F  </i>
     <i type="int" name="MAXMIX">   -45</i>
     <i name="WC">    100.00000000</i>
     <i type="int" name="INIMIX">     1</i>
     <i type="int" name="MIXPRE">     1</i>
     <i type="int" name="MREMOVE">     5</i>
    </separator>
   </separator>
   <separator name="electronic dipolcorrection" >
    <i type="logical" name="LDIPOL"> F  </i>
    <i type="logical" name="LMONO"> F  </i>
    <i type="int" name="IDIPOL">     0</i>
    <i name="EPSILON">      1.00000000</i>
    <v name="DIPOL">   -100.00000000   -100.00000000   -100.00000000</v>
    <i name="EFIELD">      0.00000000</i>
    <i type="logical" name="LVACPOTAV"> F  </i>
   </separator>
  </separator>
  <separator name="grids" >
   <i type="int" name="NGX">    90</i>
   <i type="int" name="NGY">    90</i>
   <i type="int" name="NGZ">   160</i>
   <i type="int" name="NGXF">   180</i>
   <i type="int" name="NGYF">   180</i>
   <i type="int" name="NGZF">   320</i>
   <i type="logical" name="ADDGRID"> T  </i>
  </separator>
  <separator name="ionic" >
   <i type="int" name="NSW">   300</i>
   <i type="int" name="IBRION">     2</i>
   <i type="int" name="MDALGO">     0</i>
   <i type="int" name="ISIF">     2</i>
   <i name="PSTRESS">      0.00000000</i>
   <i name="EDIFFG">     -0.02000000</i>
   <i type="int" name="NFREE">     1</i>
   <i name="POTIM">      0.50000000</i>
   <i name="SMASS">     -3.00000000</i>
   <i name="SCALEE">      1.00000000</i>
  </separator>
  <separator name="ionic md" >
   <i name="TEBEG">      0.00010000</i>
   <i name="TEEND">      0.00010000</i>
   <i type="int" name="NBLOCK">     1</i>
   <i type="int" name="KBLOCK">   300</i>
   <i type="int" name="NPACO">   256</i>
   <i name="APACO">     10.00000000</i>
  </separator>
  <separator name="symmetry" >
   <i type="int" name="ISYM">     2</i>
   <i name="SYMPREC">      0.00001000</i>
  </separator>
  <separator name="dos" >
   <i type="int" name="LORBIT">     0</i>
   <v name="RWIGS">     -1.00000000     -1.00000000     -1.00000000</v>
   <i type="int" name="NEDOS">   301</i>
   <i name="EMIN">     10.00000000</i>
   <i name="EMAX">    -10.00000000</i>
   <i name="EFERMI">      0.00000000</i>
  </separator>
  <separator name="writing" >
   <i type="int" name="NWRITE">     2</i>
   <i type="logical" name="LWAVE"> F  </i>
   <i type="logical" name="LDOWNSAMPLE"> F  </i>
   <i type="logical" name="LCHARG"> F  </i>
   <i type="logical" name="LPARD"> F  </i>
   <i type="logical" name="LVTOT"> F  </i>
   <i type="logical" name="LVHAR"> F  </i>
   <i type="logical" name="LELF"> F  </i>
   <i type="logical" name="LOPTICS"> F  </i>
   <v name="STM">      0.00000000      0.00000000      0.00000000      0.00000000      0.00000000      0.00000000      0.00000000</v>
  </separator>
  <separator name="performance" >
   <i type="int" name="NPAR">    48</i>
   <i type="int" name="NSIM">     4</i>
   <i type="int" name="NBLK">    -1</i>
   <i type="logical" name="LPLANE"> T  </i>
   <i type="logical" name="LSCALAPACK"> T  </i>
   <i type="logical" name="LSCAAWARE"> T  </i>
   <i type="logical" name="LSCALU"> F  </i>
   <i type="logical" name="LASYNC"> F  </i>
   <i type="logical" name="LORBITALREAL"> F  </i>
  </separator>
  <separator name="miscellaneous" >
   <i type="int" name="IDIOT">     3</i>
   <i type="int" name="PHON_NSTRUCT">    -1</i>
   <i type="logical" name="LMUSIC"> F  </i>
   <v name="POMASS">    192.22000000    140.11500000     16.00000000</v>
   <v name="DARWINR">      0.00000000      0.00000000      0.00000000</v>
   <v name="DARWINV">      1.00000000      1.00000000      1.00000000</v>
   <i type="logical" name="LCORR"> T  </i>
  </separator>
  <i type="logical" name="GGA_COMPAT"> T  </i>
  <i type="logical" name="LBERRY"> F  </i>
  <i type="int" name="ICORELEVEL">     0</i>
  <i type="logical" name="LDAU"> T  </i>
  <v type="int" name="LDAUTYPE">     2</v>
  <v type="int" name="LDAUL">     2</v>
  <v name="LDAUU">      2.00000000</v>
  <v name="LDAUJ">      0.00000000</v>
  <i type="int" name="LDAUPRINT">     0</i>
  <i type="int" name="I_CONSTRAINED_M">     0</i>
  <separator name="electronic exchange-correlation" >
   <i type="string" name="GGA    ">PE</i>
   <i type="string" name="XC_C">1</i>
   <i type="int" name="VOSKOWN">     0</i>
   <i type="logical" name="LHFCALC"> F  </i>
   <i type="string" name="PRECFOCK"></i>
   <i type="logical" name="LSYMGRAD"> F  </i>
   <i type="logical" name="LHFONE"> F  </i>
   <i type="logical" name="LRHFCALC"> F  </i>
   <i type="logical" name="LTHOMAS"> F  </i>
   <i type="logical" name="LMODELHF"> F  </i>
   <i type="logical" name="LFOCKACE"> F  </i>
   <i name="ENCUT4O">     -1.00000000</i>
   <i type="int" name="EXXOEP">     0</i>
   <i type="int" name="FOURORBIT">     0</i>
   <i name="AEXX">      0.00000000</i>
   <i name="HFALPHA">      0.00000000</i>
   <i name="MCALPHA">      0.00000000</i>
   <i name="ALDAX">      1.00000000</i>
   <i name="AGGAX">      1.00000000</i>
   <i name="AMGGAX">      1.00000000</i>
   <i name="ALDAC">      1.00000000</i>
   <i name="AGGAC">      1.00000000</i>
   <i name="AMGGAC">      1.00000000</i>
   <i type="int" name="NKREDX">     1</i>
   <i type="int" name="NKREDY">     1</i>
   <i type="int" name="NKREDZ">     1</i>
   <i type="logical" name="SHIFTRED"> F  </i>
   <i type="logical" name="ODDONLY"> F  </i>
   <i type="logical" name="EVENONLY"> F  </i>
   <i type="int" name="LMAXFOCK">     0</i>
   <i type="int" name="NMAXFOCKAE">     0</i>
   <i type="logical" name="LFOCKAEDFT"> F  </i>
   <i name="HFSCREEN">      0.00000000</i>
   <i name="HFSCREENC">      0.00000000</i>
   <i type="int" name="NBANDSGWLOW">     0</i>
  </separator>
  <separator name="vdW DFT" >
   <i type="logical" name="LUSE_VDW"> F  </i>
   <i type="int" name="IVDW_NL">    -1</i>
   <i type="logical" name="LSPIN_VDW"> F  </i>
   <i name="ZAB_VDW">     -0.84910000</i>
   <i name="GAMMA_VDW">      1.39626340</i>
   <i name="ALPHA_VDW">      0.00000000</i>
   <i name="PARAM1">      0.12340000</i>
   <i name="PARAM2">      1.00000000</i>
   <i name="BPARAM">      6.30000000</i>
   <i name="CPARAM">      0.00930000</i>
  </separator>
  <separator name="model GW" >
   <i type="int" name="MODEL_GW">     0</i>
   <i name="MODEL_EPS0">     14.86082213</i>
   <i name="MODEL_ALPHA">      1.00000000</i>
  </separator>
  <separator name="linear response parameters" >
   <i type="logical" name="LEPSILON"> F  </i>
   <i type="logical" name="LRPA"> F  </i>
   <i type="logical" name="LNABLA"> F  </i>
   <i type="logical" name="LVEL"> F  </i>
   <i name="CSHIFT">      0.10000000</i>
   <i name="OMEGAMAX">     -1.00000000</i>
   <i name="DEG_THRESHOLD">      0.00200000</i>
   <i name="RTIME">     -0.10000000</i>
   <i name="WPLASMAI">      0.00000000</i>
   <v name="DFIELD">      0.00000000      0.00000000      0.00000000</v>
   <v name="WPLASMA">      0.00000000      0.00000000      0.00000000      0.00000000      0.00000000      0.00000000      0.00000000      0.00000000      0.00000000</v>
  </separator>
  <separator name="orbital magnetization" >
   <i type="logical" name="NUCIND"> F  </i>
   <v name="MAGPOS">      0.00000000      0.00000000      0.00000000</v>
   <i type="logical" name="LNICSALL"> T  </i>
   <i type="logical" name="ORBITALMAG"> F  </i>
   <i type="logical" name="LMAGBLOCH"> F  </i>
   <i type="logical" name="LCHIMAG"> F  </i>
   <i type="logical" name="LGAUGE"> T  </i>
   <i type="int" name="MAGATOM">     0</i>
   <v name="MAGDIPOL">      0.00000000      0.00000000      0.00000000</v>
   <v name="AVECCONST">      0.00000000      0.00000000      0.00000000</v>
  </separator>
  <separator name="response functions" >
   <i type="logical" name="LALL_IN_ONE"> F  </i>
   <i type="int" name="IALL_IN_ONE">    -1</i>
   <i type="int" name="NBANDS_WAVE">    -1</i>
   <i type="logical" name="LFINITE_TEMPERATURE"> F  </i>
   <i type="logical" name="LADDER"> F  </i>
   <i type="logical" name="LRPAFORCE"> F  </i>
   <i type="logical" name="LFXC"> F  </i>
   <i type="logical" name="LHARTREE"> T  </i>
   <i type="int" name="IBSE">     0</i>
   <v type="int" name="KPOINT">    -1     0     0     0</v>
   <i type="logical" name="LTCTC"> F  </i>
   <i type="logical" name="LTCTE"> F  </i>
   <i type="logical" name="LTETE"> F  </i>
   <i type="logical" name="LTRIPLET"> F  </i>
   <i type="logical" name="LFXCEPS"> F  </i>
   <i type="logical" name="LFXHEG"> F  </i>
   <i type="int" name="NATURALO">     2</i>
   <i type="logical" name="LHOLEGF"> F  </i>
   <i type="logical" name="L2ORDER"> F  </i>
   <i type="logical" name="LDMP1"> F  </i>
   <i type="logical" name="LMP2LT"> F  </i>
   <i type="logical" name="LSMP2LT"> F  </i>
   <i type="logical" name="LGWLF"> F  </i>
   <i name="ENCUTGW">     -1.60000002</i>
   <i name="ENCUTGWSOFT">     -1.60000002</i>
   <i name="ENCUTLF">     -1.00000000</i>
   <i type="logical" name="ESF_SPLINES"> F  </i>
   <i name="ESF_CONV">      0.01000000</i>
   <i type="int" name="ESF_NINTER">    15</i>
   <i type="int" name="LMAXMP2">    -1</i>
   <i name="SCISSOR">      0.00000000</i>
   <i type="int" name="NOMEGA">     0</i>
   <i type="int" name="NOMEGAR">     0</i>
   <i type="int" name="NBANDSGW">    -1</i>
   <i type="int" name="NBANDSO">    -1</i>
   <i type="int" name="NBANDSV">    -1</i>
   <i type="int" name="NELMGW">     1</i>
   <i type="int" name="NELMHF">     1</i>
   <i type="int" name="DIM">     3</i>
   <i type="int" name="IESPILON">     4</i>
   <i type="int" name="ANTIRES">     0</i>
   <i name="OMEGAMAX">    -30.00000000</i>
   <i name="OMEGAMIN">    -30.00000000</i>
   <i name="OMEGATL">   -200.00000000</i>
   <i type="int" name="OMEGAGRID">     0</i>
   <i name="CSHIFT">     -0.10000000</i>
   <i type="logical" name="LSELFENERGY"> F  </i>
   <i type="logical" name="LSPECTRAL"> F  </i>
   <i type="logical" name="LSPECTRALGW"> F  </i>
   <i type="logical" name="LSINGLES"> F  </i>
   <i type="logical" name="LFERMIGW"> F  </i>
   <i type="logical" name="ODDONLYGW"> F  </i>
   <i type="logical" name="EVENONLYGW"> F  </i>
   <i type="int" name="NKREDLFX">     1</i>
   <i type="int" name="NKREDLFY">     1</i>
   <i type="int" name="NKREDLFZ">     1</i>
   <i type="int" name="MAXMEM">  2800</i>
   <i type="int" name="TELESCOPE">     0</i>
   <i type="int" name="NTAUPAR">    -1</i>
   <i type="int" name="NOMEGAPAR">    -1</i>
   <i name="DAMP_NEWTON">      0.80000001</i>
   <i name="LAMBDA">      1.00000000</i>
  </separator>
  <separator name="External order field" >
   <i name="OFIELD_KAPPA">      0.00000000</i>
   <v name="OFIELD_K">      0.00000000      0.00000000      0.00000000</v>
   <i name="OFIELD_Q6_NEAR">      0.00000000</i>
   <i name="OFIELD_Q6_FAR">      0.00000000</i>
   <i name="OFIELD_A">      0.00000000</i>
  </separator>
  <separator name="optional k-points parameters" >
   <i type="int" name="KPOINTS_OPT_MODE">     1</i>
   <i type="logical" name="LKPOINTS_OPT"> F  </i>
  </separator>
 </parameters>
 <atominfo>
  <atoms>      99 </atoms>
  <types>       3 </types>
  <array name="atoms" >
   <dimension dim="1">ion</dimension>
   <field type="string">element</field>
   <field type="int">atomtype</field>
   <set>
    <rc><c>Ir</c><c>   1</c></rc>
    <rc><c>Ir</c><c>   1</c></rc>
    <rc><c>Ir</c><c>   1</c></rc>
    <rc><c>Ir</c><c>   1</c></rc>
    <rc><c>Ir</c><c>   1</c></rc>
    <rc><c>Ir</c><c>   1</c></rc>
    <rc><c>Ce</c><c>   2</c></rc>
    <rc><c>Ce</c><c>   2</c></rc>
    <rc><c>Ce</c><c>   2</c></rc>
    <rc><c>Ce</c><c>   2</c></rc>
    <rc><c>Ce</c><c>   2</c></rc>
    <rc><c>Ce</c><c>   2</c></rc>
    <rc><c>Ce</c><c>   2</c></rc>
    <rc><c>Ce</c><c>   2</c></rc>
    <rc><c>Ce</c><c>   2</c></rc>
    <rc><c>Ce</c><c>   2</c></rc>
    <rc><c>Ce</c><c>   2</c></rc>
    <rc><c>Ce</c><c>   2</c></rc>
    <rc><c>Ce</c><c>   2</c></rc>
    <rc><c>Ce</c><c>   2</c></rc>
    <rc><c>Ce</c><c>   2</c></rc>
    <rc><c>Ce</c><c>   2</c></rc>
    <rc><c>Ce</c><c>   2</c></rc>
    <rc><c>Ce</c><c>   2</c></rc>
    <rc><c>Ce</c><c>   2</c></rc>
    <rc><c>Ce</c><c>   2</c></rc>
    <rc><c>Ce</c><c>   2</c></rc>
    <rc><c>O </c><c>   3</c></rc>
    <rc><c>O </c><c>   3</c></rc>
    <rc><c>O </c><c>   3</c></rc>
    <rc><c>O </c><c>   3</c></rc>
    <rc><c>O </c><c>   3</c></rc>
    <rc><c>O </c><c>   3</c></rc>
    <rc><c>O </c><c>   3</c></rc>
    <rc><c>O </c><c>   3</c></rc>
    <rc><c>O </c><c>   3</c></rc>
    <rc><c>O </c><c>   3</c></rc>
    <rc><c>O </c><c>   3</c></rc>
    <rc><c>O </c><c>   3</c></rc>
    <rc><c>O </c><c>   3</c></rc>
    <rc><c>O </c><c>   3</c></rc>
    <rc><c>O </c><c>   3</c></rc>
    <rc><c>O </c><c>   3</c></rc>
    <rc><c>O </c><c>   3</c></rc>
    <rc><c>O </c><c>   3</c></rc>
    <rc><c>O </c><c>   3</c></rc>
    <rc><c>O </c><c>   3</c></rc>
    <rc><c>O </c><c>   3</c></rc>
    <rc><c>O </c><c>   3</c></rc>
    <rc><c>O </c><c>   3</c></rc>
    <rc><c>O </c><c>   3</c></rc>
    <rc><c>O </c><c>   3</c></rc>
    <rc><c>O </c><c>   3</c></rc>
    <rc><c>O </c><c>   3</c></rc>
    <rc><c>O </c><c>   3</c></rc>
    <rc><c>O </c><c>   3</c></rc>
    <rc><c>O </c><c>   3</c></rc>
    <rc><c>O </c><c>   3</c></rc>
    <rc><c>O </c><c>   3</c></rc>
    <rc><c>O </c><c>   3</c></rc>
    <rc><c>O </c><c>   3</c></rc>
    <rc><c>O </c><c>   3</c></rc>
    <rc><c>O </c><c>   3</c></rc>
    <rc><c>O </c><c>   3</c></rc>
    <rc><c>O </c><c>   3</c></rc>
    <rc><c>O </c><c>   3</c></rc>
    <rc><c>O </c><c>   3</c></rc>
    <rc><c>O </c><c>   3</c></rc>
    <rc><c>O </c><c>   3</c></rc>
    <rc><c>O </c><c>   3</c></rc>
    <rc><c>O </c><c>   3</c></rc>
    <rc><c>O </c><c>   3</c></rc>
    <rc><c>O </c><c>   3</c></rc>
    <rc><c>O </c><c>   3</c></rc>
    <rc><c>O </c><c>   3</c></rc>
    <rc><c>O </c><c>   3</c></rc>
    <rc><c>O </c><c>   3</c></rc>
    <rc><c>O </c><c>   3</c></rc>
    <rc><c>O </c><c>   3</c></rc>
    <rc><c>O </c><c>   3</c></rc>
    <rc><c>O </c><c>   3</c></rc>
    <rc><c>O </c><c>   3</c></rc>
    <rc><c>O </c><c>   3</c></rc>
    <rc><c>O </c><c>   3</c></rc>
    <rc><c>O </c><c>   3</c></rc>
    <rc><c>O </c><c>   3</c></rc>
    <rc><c>O </c><c>   3</c></rc>
    <rc><c>O </c><c>   3</c></rc>
    <rc><c>O </c><c>   3</c></rc>
    <rc><c>O </c><c>   3</c></rc>
    <rc><c>O </c><c>   3</c></rc>
    <rc><c>O </c><c>   3</c></rc>
    <rc><c>O </c><c>   3</c></rc>
    <rc><c>O </c><c>   3</c></rc>
    <rc><c>O </c><c>   3</c></rc>
    <rc><c>O </c><c>   3</c></rc>
    <rc><c>O </c><c>   3</c></rc>
    <rc><c>O </c><c>   3</c></rc>
    <rc><c>O </c><c>   3</c></rc>
   </set>
  </array>
  <array name="atomtypes" >
   <dimension dim="1">type</dimension>
   <field type="int">atomspertype</field>
   <field type="string">element</field>
   <field>mass</field>
   <field>valence</field>
   <field type="string">pseudopotential</field>
   <set>
    <rc><c>   6</c><c>Ir</c><c>    192.22000000</c><c>      9.00000000</c><c>  PAW_PBE Ir 06Sep2000                  </c></rc>
    <rc><c>  21</c><c>Ce</c><c>    140.11500000</c><c>     12.00000000</c><c>  PAW_PBE Ce 23Dec2003                  </c></rc>
    <rc><c>  72</c><c>O </c><c>     16.00000000</c><c>      6.00000000</c><c>  PAW_PBE O 08Apr2002                   </c></rc>
   </set>
  </array>
 </atominfo>
 <structure name="initialpos" >
  <crystal>
   <varray name="basis" >
    <v>      11.59820000       0.00000000       0.00000000 </v>
    <v>      -5.79910000      10.04433584       0.00000000 </v>
    <v>       0.00000000       0.00000000      21.04820000 </v>
   </varray>
   <i name="volume">   2452.03565189 </i>
   <varray name="rec_basis" >
    <v>       0.08622028       0.04977930       0.00000000 </v>
    <v>       0.00000000       0.09955860       0.00000000 </v>
    <v>       0.00000000       0.00000000       0.04751000 </v>
   </varray>
  </crystal>
  <varray name="positions" >
   <v>       0.00000000       0.00000000       0.45993000 </v>
   <v>       0.66667000       0.00000000       0.45993000 </v>
   <v>       0.00000000       0.33333000       0.45993000 </v>
   <v>       0.33333000       0.33333000       0.45993000 </v>
   <v>       0.33333000       0.66667000       0.45993000 </v>
   <v>       0.66667000       0.66667000       0.45993000 </v>
   <v>       0.22222000       0.11111000       0.30996000 </v>
   <v>       0.11111000       0.22222000       0.15999000 </v>
   <v>       0.33333000       0.00000000       0.45993000 </v>
   <v>       0.55556000       0.11111000       0.30996000 </v>
   <v>       0.44444000       0.22222000       0.15999000 </v>
   <v>       0.88889000       0.11111000       0.30996000 </v>
   <v>       0.77778000       0.22222000       0.15999000 </v>
   <v>       0.22222000       0.44444000       0.30996000 </v>
   <v>       0.11111000       0.55556000       0.15999000 </v>
   <v>       0.55556000       0.44444000       0.30996000 </v>
   <v>       0.44444000       0.55556000       0.15999000 </v>
   <v>       0.66667000       0.33333000       0.45993000 </v>
   <v>       0.88889000       0.44444000       0.30996000 </v>
   <v>       0.77778000       0.55556000       0.15999000 </v>
   <v>       0.00000000       0.66667000       0.45993000 </v>
   <v>       0.22222000       0.77778000       0.30996000 </v>
   <v>       0.11111000       0.88889000       0.15999000 </v>
   <v>       0.55556000       0.77778000       0.30996000 </v>
   <v>       0.44444000       0.88889000       0.15999000 </v>
   <v>       0.88889000       0.77778000       0.30996000 </v>
   <v>       0.77778000       0.88889000       0.15999000 </v>
   <v>       0.00000000       0.00000000       0.12250000 </v>
   <v>       0.00000000       0.00000000       0.57241000 </v>
   <v>       0.11111000       0.22222000       0.27247000 </v>
   <v>       0.22222000       0.11111000       0.42244000 </v>
   <v>       0.11111000       0.22222000       0.04751000 </v>
   <v>       0.11111000       0.22222000       0.49742000 </v>
   <v>       0.00000000       0.00000000       0.34745000 </v>
   <v>       0.22222000       0.11111000       0.19748000 </v>
   <v>       0.33333000       0.00000000       0.12250000 </v>
   <v>       0.33333000       0.00000000       0.57241000 </v>
   <v>       0.44444000       0.22222000       0.27247000 </v>
   <v>       0.55556000       0.11111000       0.42244000 </v>
   <v>       0.44444000       0.22222000       0.04751000 </v>
   <v>       0.44444000       0.22222000       0.49742000 </v>
   <v>       0.33333000       0.00000000       0.34745000 </v>
   <v>       0.55556000       0.11111000       0.19748000 </v>
   <v>       0.66667000       0.00000000       0.12250000 </v>
   <v>       0.66667000       0.00000000       0.57241000 </v>
   <v>       0.77778000       0.22222000       0.27247000 </v>
   <v>       0.88889000       0.11111000       0.42244000 </v>
   <v>       0.77778000       0.22222000       0.04751000 </v>
   <v>       0.77778000       0.22222000       0.49742000 </v>
   <v>       0.66667000       0.00000000       0.34745000 </v>
   <v>       0.88889000       0.11111000       0.19748000 </v>
   <v>       0.00000000       0.33333000       0.12250000 </v>
   <v>       0.00000000       0.33333000       0.57241000 </v>
   <v>       0.11111000       0.55556000       0.27247000 </v>
   <v>       0.22222000       0.44444000       0.42244000 </v>
   <v>       0.11111000       0.55556000       0.04751000 </v>
   <v>       0.11111000       0.55556000       0.49742000 </v>
   <v>       0.00000000       0.33333000       0.34745000 </v>
   <v>       0.22222000       0.44444000       0.19748000 </v>
   <v>       0.33333000       0.33333000       0.12250000 </v>
   <v>       0.33333000       0.33333000       0.57241000 </v>
   <v>       0.44444000       0.55556000       0.27247000 </v>
   <v>       0.55556000       0.44444000       0.42244000 </v>
   <v>       0.44444000       0.55556000       0.04751000 </v>
   <v>       0.44444000       0.55556000       0.49742000 </v>
   <v>       0.33333000       0.33333000       0.34745000 </v>
   <v>       0.55556000       0.44444000       0.19748000 </v>
   <v>       0.66667000       0.33333000       0.12250000 </v>
   <v>       0.66667000       0.33333000       0.57241000 </v>
   <v>       0.77778000       0.55556000       0.27247000 </v>
   <v>       0.88889000       0.44444000       0.42244000 </v>
   <v>       0.77778000       0.55556000       0.04751000 </v>
   <v>       0.77778000       0.55556000       0.49742000 </v>
   <v>       0.66667000       0.33333000       0.34745000 </v>
   <v>       0.88889000       0.44444000       0.19748000 </v>
   <v>       0.00000000       0.66667000       0.12250000 </v>
   <v>       0.00000000       0.66667000       0.57241000 </v>
   <v>       0.11111000       0.88889000       0.27247000 </v>
   <v>       0.22222000       0.77778000       0.42244000 </v>
   <v>       0.11111000       0.88889000       0.04751000 </v>
   <v>       0.11111000       0.88889000       0.49742000 </v>
   <v>       0.00000000       0.66667000       0.34745000 </v>
   <v>       0.22222000       0.77778000       0.19748000 </v>
   <v>       0.33333000       0.66667000       0.12250000 </v>
   <v>       0.33333000       0.66667000       0.57241000 </v>
   <v>       0.44444000       0.88889000       0.27247000 </v>
   <v>       0.55556000       0.77778000       0.42244000 </v>
   <v>       0.44444000       0.88889000       0.04751000 </v>
   <v>       0.44444000       0.88889000       0.49742000 </v>
   <v>       0.33333000       0.66667000       0.34745000 </v>
   <v>       0.55556000       0.77778000       0.19748000 </v>
   <v>       0.66667000       0.66667000       0.12250000 </v>
   <v>       0.66667000       0.66667000       0.57241000 </v>
   <v>       0.77778000       0.88889000       0.27247000 </v>
   <v>       0.88889000       0.77778000       0.42244000 </v>
   <v>       0.77778000       0.88889000       0.04751000 </v>
   <v>       0.77778000       0.88889000       0.49742000 </v>
   <v>       0.66667000       0.66667000       0.34745000 </v>
   <v>       0.88889000       0.77778000       0.19748000 </v>
  </varray>
  <varray name="selective"  type="logical" >
   <v type="logical" >  T  T  T </v>
   <v type="logical" >  T  T  T </v>
   <v type="logical" >  T  T  T </v>
   <v type="logical" >  T  T  T </v>
   <v type="logical" >  T  T  T </v>
   <v type="logical" >  T  T  T </v>
   <v type="logical" >  T  T  T </v>
   <v type="logical" >  F  F  F </v>
   <v type="logical" >  T  T  T </v>
   <v type="logical" >  T  T  T </v>
   <v type="logical" >  F  F  F </v>
   <v type="logical" >  T  T  T </v>
   <v type="logical" >  F  F  F </v>
   <v type="logical" >  T  T  T </v>
   <v type="logical" >  F  F  F </v>
   <v type="logical" >  T  T  T </v>
   <v type="logical" >  F  F  F </v>
   <v type="logical" >  T  T  T </v>
   <v type="logical" >  T  T  T </v>
   <v type="logical" >  F  F  F </v>
   <v type="logical" >  T  T  T </v>
   <v type="logical" >  T  T  T </v>
   <v type="logical" >  F  F  F </v>
   <v type="logical" >  T  T  T </v>
   <v type="logical" >  F  F  F </v>
   <v type="logical" >  T  T  T </v>
   <v type="logical" >  F  F  F </v>
   <v type="logical" >  F  F  F </v>
   <v type="logical" >  T  T  T </v>
   <v type="logical" >  T  T  T </v>
   <v type="logical" >  T  T  T </v>
   <v type="logical" >  F  F  F </v>
   <v type="logical" >  T  T  T </v>
   <v type="logical" >  T  T  T </v>
   <v type="logical" >  F  F  F </v>
   <v type="logical" >  F  F  F </v>
   <v type="logical" >  T  T  T </v>
   <v type="logical" >  T  T  T </v>
   <v type="logical" >  T  T  T </v>
   <v type="logical" >  F  F  F </v>
   <v type="logical" >  T  T  T </v>
   <v type="logical" >  T  T  T </v>
   <v type="logical" >  F  F  F </v>
   <v type="logical" >  F  F  F </v>
   <v type="logical" >  T  T  T </v>
   <v type="logical" >  T  T  T </v>
   <v type="logical" >  T  T  T </v>
   <v type="logical" >  F  F  F </v>
   <v type="logical" >  T  T  T </v>
   <v type="logical" >  T  T  T </v>
   <v type="logical" >  F  F  F </v>
   <v type="logical" >  F  F  F </v>
   <v type="logical" >  T  T  T </v>
   <v type="logical" >  T  T  T </v>
   <v type="logical" >  T  T  T </v>
   <v type="logical" >  F  F  F </v>
   <v type="logical" >  T  T  T </v>
   <v type="logical" >  T  T  T </v>
   <v type="logical" >  F  F  F </v>
   <v type="logical" >  F  F  F </v>
   <v type="logical" >  T  T  T </v>
   <v type="logical" >  T  T  T </v>
   <v type="logical" >  T  T  T </v>
   <v type="logical" >  F  F  F </v>
   <v type="logical" >  T  T  T </v>
   <v type="logical" >  T  T  T </v>
   <v type="logical" >  F  F  F </v>
   <v type="logical" >  F  F  F </v>
   <v type="logical" >  T  T  T </v>
   <v type="logical" >  T  T  T </v>
   <v type="logical" >  T  T  T </v>
   <v type="logical" >  F  F  F </v>
   <v type="logical" >  T  T  T </v>
   <v type="logical" >  T  T  T </v>
   <v type="logical" >  F  F  F </v>
   <v type="logical" >  F  F  F </v>
   <v type="logical" >  T  T  T </v>
   <v type="logical" >  T  T  T </v>
   <v type="logical" >  T  T  T </v>
   <v type="logical" >  F  F  F </v>
   <v type="logical" >  T  T  T </v>
   <v type="logical" >  T  T  T </v>
   <v type="logical" >  F  F  F </v>
   <v type="logical" >  F  F  F </v>
   <v type="logical" >  T  T  T </v>
   <v type="logical" >  T  T  T </v>
   <v type="logical" >  T  T  T </v>
   <v type="logical" >  F  F  F </v>
   <v type="logical" >  T  T  T </v>
   <v type="logical" >  T  T  T </v>
   <v type="logical" >  F  F  F </v>
   <v type="logical" >  F  F  F </v>
   <v type="logical" >  T  T  T </v>
   <v type="logical" >  T  T  T </v>
   <v type="logical" >  T  T  T </v>
   <v type="logical" >  F  F  F </v>
   <v type="logical" >  T  T  T </v>
   <v type="logical" >  T  T  T </v>
   <v type="logical" >  F  F  F </v>
  </varray>
  <nose>
   <v>      -3.00000000       0.00000000       0.00010000       0.00010000 </v>
  </nose>
 </structure>
 <calculation>
  <scstep>
   <time name="dav">   16.84   16.89</time>
   <time name="total">   18.32   18.38</time>
   <energy>
    <i name="alphaZ">   1839.19756306 </i>
    <i name="ewald"> 117433.20424339 </i>
    <i name="hartreedc">-170540.35991237 </i>
    <i name="XCdc">   1975.89356865 </i>
    <i name="pawpsdc">  46122.55799334 </i>
    <i name="pawaedc"> -45467.04419015 </i>
    <i name="eentropy">     -0.02835915 </i>
    <i name="bandstr">   3259.75955780 </i>
    <i name="atom">  56815.39572979 </i>
    <i name="e_fr_energy">  11438.57619434 </i>
    <i name="e_wo_entrp">  11438.60455349 </i>
    <i name="e_0_energy">  11438.59037392 </i>
   </energy>
  </scstep>
  <scstep>
   <time name="dav">   18.82   18.83</time>
   <time name="total">   18.82   18.83</time>
   <energy>
    <i name="e_fr_energy">   2971.40994006 </i>
    <i name="e_wo_entrp">   2971.57953216 </i>
    <i name="e_0_energy">   2971.49473611 </i>
   </energy>
  </scstep>
  <scstep>
   <time name="dav">   22.15   22.16</time>
   <time name="total">   22.15   22.16</time>
   <energy>
    <i name="e_fr_energy">   -347.36934792 </i>
    <i name="e_wo_entrp">   -347.34014031 </i>
    <i name="e_0_energy">   -347.35474412 </i>
   </energy>
  </scstep>
  <scstep>
   <time name="dav">   23.57   23.58</time>
   <time name="total">   23.57   23.58</time>
   <energy>
    <i name="e_fr_energy">   -863.76503687 </i>
    <i name="e_wo_entrp">   -863.74506219 </i>
    <i name="e_0_energy">   -863.75504953 </i>
   </energy>
  </scstep>
  <scstep>
   <time name="dav">   25.91   25.93</time>
   <time name="total">   27.33   27.35</time>
   <energy>
    <i name="e_fr_energy">   -892.37309785 </i>
    <i name="e_wo_entrp">   -892.29203068 </i>
    <i name="e_0_energy">   -892.33256426 </i>
   </energy>
  </scstep>
  <scstep>
   <time name="dav">   26.43   26.44</time>
   <time name="total">   29.20   29.22</time>
   <energy>
    <i name="e_fr_energy">  -1629.73563223 </i>
    <i name="e_wo_entrp">  -1629.59409502 </i>
    <i name="e_0_energy">  -1629.66486362 </i>
   </energy>
  </scstep>
  <scstep>
   <time name="dav">   24.79   24.80</time>
   <time name="total">   27.61   27.63</time>
   <energy>
    <i name="e_fr_energy">  -1145.52147914 </i>
    <i name="e_wo_entrp">  -1145.29380371 </i>
    <i name="e_0_energy">  -1145.40764143 </i>
   </energy>
  </scstep>
  <scstep>
   <time name="dav">   26.01   26.03</time>
   <time name="total">   28.79   28.81</time>
   <energy>
    <i name="e_fr_energy">  -1465.24853554 </i>
    <i name="e_wo_entrp">  -1465.18375190 </i>
    <i name="e_0_energy">  -1465.21614372 </i>
   </energy>
  </scstep>
  <scstep>
   <time name="dav">   24.62   24.64</time>
   <time name="total">   27.41   27.43</time>
   <energy>
    <i name="e_fr_energy">  -1041.09809057 </i>
    <i name="e_wo_entrp">  -1041.01127292 </i>
    <i name="e_0_energy">  -1041.05468175 </i>
   </energy>
  </scstep>
  <scstep>
   <time name="dav">   26.26   26.27</time>
   <time name="total">   29.07   29.09</time>
   <energy>
    <i name="e_fr_energy">   -774.25508591 </i>
    <i name="e_wo_entrp">   -774.13592345 </i>
    <i name="e_0_energy">   -774.19550468 </i>
   </energy>
  </scstep>
  <scstep>
   <time name="dav">   26.28   26.30</time>
   <time name="total">   29.06   29.07</time>
   <energy>
    <i name="e_fr_energy">   -748.95952306 </i>
    <i name="e_wo_entrp">   -748.87596183 </i>
    <i name="e_0_energy">   -748.91774244 </i>
   </energy>
  </scstep>
  <scstep>
   <time name="dav">   26.08   26.09</time>
   <time name="total">   28.88   28.89</time>
   <energy>
    <i name="e_fr_energy">   -729.43452787 </i>
    <i name="e_wo_entrp">   -729.24104110 </i>
    <i name="e_0_energy">   -729.33778448 </i>
   </energy>
  </scstep>
  <scstep>
   <time name="dav">   22.96   22.97</time>
   <time name="total">   25.73   25.75</time>
   <energy>
    <i name="e_fr_energy">   -703.86796171 </i>
    <i name="e_wo_entrp">   -703.78579178 </i>
    <i name="e_0_energy">   -703.82687674 </i>
   </energy>
  </scstep>
  <scstep>
   <time name="dav">   22.01   22.02</time>
   <time name="total">   24.83   24.85</time>
   <energy>
    <i name="e_fr_energy">   -687.79761145 </i>
    <i name="e_wo_entrp">   -687.66099151 </i>
    <i name="e_0_energy">   -687.72930148 </i>
   </energy>
  </scstep>
  <scstep>
   <time name="dav">   22.69   22.70</time>
   <time name="total">   25.45   25.46</time>
   <energy>
    <i name="e_fr_energy">   -658.39251656 </i>
    <i name="e_wo_entrp">   -658.24042953 </i>
    <i name="e_0_energy">   -658.31647304 </i>
   </energy>
  </scstep>
  <scstep>
   <time name="dav">   21.88   21.89</time>
   <time name="total">   24.63   24.64</time>
   <energy>
    <i name="e_fr_energy">   -655.24164201 </i>
    <i name="e_wo_entrp">   -655.17222751 </i>
    <i name="e_0_energy">   -655.20693476 </i>
   </energy>
  </scstep>
  <scstep>
   <time name="dav">   25.47   25.49</time>
   <time name="total">   28.26   28.28</time>
   <energy>
    <i name="e_fr_energy">   -645.67905420 </i>
    <i name="e_wo_entrp">   -645.52245590 </i>
    <i name="e_0_energy">   -645.60075505 </i>
   </energy>
  </scstep>
  <scstep>
   <time name="dav">   24.54   24.55</time>
   <time name="total">   27.33   27.34</time>
   <energy>
    <i name="e_fr_energy">   -651.84979881 </i>
    <i name="e_wo_entrp">   -651.79666102 </i>
    <i name="e_0_energy">   -651.82322991 </i>
   </energy>
  </scstep>
  <scstep>
   <time name="dav">   24.59   24.61</time>
   <time name="total">   27.35   27.37</time>
   <energy>
    <i name="e_fr_energy">   -653.71062589 </i>
    <i name="e_wo_entrp">   -653.62871283 </i>
    <i name="e_0_energy">   -653.66966936 </i>
   </energy>
  </scstep>
  <scstep>
   <time name="dav">   25.67   25.68</time>
   <time name="total">   28.42   28.44</time>
   <energy>
    <i name="e_fr_energy">   -645.12928733 </i>
    <i name="e_wo_entrp">   -645.05886234 </i>
    <i name="e_0_energy">   -645.09407483 </i>
   </energy>
  </scstep>
  <scstep>
   <time name="dav">   26.02   26.04</time>
   <time name="total">   28.77   28.79</time>
   <energy>
    <i name="e_fr_energy">   -633.45717134 </i>
    <i name="e_wo_entrp">   -633.38987632 </i>
    <i name="e_0_energy">   -633.42352383 </i>
   </energy>
  </scstep>
  <scstep>
   <time name="dav">   22.95   22.96</time>
   <time name="total">   25.68   25.70</time>
   <energy>
    <i name="e_fr_energy">   -629.98150650 </i>
    <i name="e_wo_entrp">   -629.91106518 </i>
    <i name="e_0_energy">   -629.94628584 </i>
   </energy>
  </scstep>
  <scstep>
   <time name="dav">   24.34   24.36</time>
   <time name="total">   27.13   27.14</time>
   <energy>
    <i name="e_fr_energy">   -622.66496998 </i>
    <i name="e_wo_entrp">   -622.60610756 </i>
    <i name="e_0_energy">   -622.63553877 </i>
   </energy>
  </scstep>
  <scstep>
   <time name="dav">   26.03   26.04</time>
   <time name="total">   28.74   28.75</time>
   <energy>
    <i name="e_fr_energy">   -620.94735247 </i>
    <i name="e_wo_entrp">   -620.82850629 </i>
    <i name="e_0_energy">   -620.88792938 </i>
   </energy>
  </scstep>
  <scstep>
   <time name="dav">   24.52   24.53</time>
   <time name="total">   27.28   27.30</time>
   <energy>
    <i name="e_fr_energy">   -622.67192641 </i>
    <i name="e_wo_entrp">   -622.61244539 </i>
    <i name="e_0_energy">   -622.64218590 </i>
   </energy>
  </scstep>
  <scstep>
   <time name="dav">   23.15   23.16</time>
   <time name="total">   25.93   25.94</time>
   <energy>
    <i name="e_fr_energy">   -623.06733361 </i>
    <i name="e_wo_entrp">   -623.00209496 </i>
    <i name="e_0_energy">   -623.03471429 </i>
   </energy>
  </scstep>
  <scstep>
   <time name="dav">   22.30   22.31</time>
   <time name="total">   25.04   25.05</time>
   <energy>
    <i name="e_fr_energy">   -624.49515882 </i>
    <i name="e_wo_entrp">   -624.47354541 </i>
    <i name="e_0_energy">   -624.48435212 </i>
   </energy>
  </scstep>
  <scstep>
   <time name="dav">   22.00   22.01</time>
   <time name="total">   24.75   24.77</time>
   <energy>
    <i name="e_fr_energy">   -626.48098238 </i>
    <i name="e_wo_entrp">   -626.44166916 </i>
    <i name="e_0_energy">   -626.46132577 </i>
   </energy>
  </scstep>
  <scstep>
   <time name="dav">   22.41   22.42</time>
   <time name="total">   25.15   25.17</time>
   <energy>
    <i name="e_fr_energy">   -628.51001169 </i>
    <i name="e_wo_entrp">   -628.47743411 </i>
    <i name="e_0_energy">   -628.49372290 </i>
   </energy>
  </scstep>
  <scstep>
   <time name="dav">   24.51   24.53</time>
   <time name="total">   27.26   27.28</time>
   <energy>
    <i name="e_fr_energy">   -628.89535382 </i>
    <i name="e_wo_entrp">   -628.87970101 </i>
    <i name="e_0_energy">   -628.88752742 </i>
   </energy>
  </scstep>
  <scstep>
   <time name="dav">   22.68   22.70</time>
   <time name="total">   25.41   25.43</time>
   <energy>
    <i name="e_fr_energy">   -629.91434376 </i>
    <i name="e_wo_entrp">   -629.89070895 </i>
    <i name="e_0_energy">   -629.90252635 </i>
   </energy>
  </scstep>
  <scstep>
   <time name="dav">   22.64   22.65</time>
   <time name="total">   25.37   25.38</time>
   <energy>
    <i name="e_fr_energy">   -630.92573756 </i>
    <i name="e_wo_entrp">   -630.89711755 </i>
    <i name="e_0_energy">   -630.91142756 </i>
   </energy>
  </scstep>
  <scstep>
   <time name="dav">   23.30   23.31</time>
   <time name="total">   26.02   26.04</time>
   <energy>
    <i name="e_fr_energy">   -632.11644526 </i>
    <i name="e_wo_entrp">   -632.04576189 </i>
    <i name="e_0_energy">   -632.08110358 </i>
   </energy>
  </scstep>
  <scstep>
   <time name="dav">   22.54   22.55</time>
   <time name="total">   25.28   25.30</time>
   <energy>
    <i name="e_fr_energy">   -634.08911878 </i>
    <i name="e_wo_entrp">   -634.03557270 </i>
    <i name="e_0_energy">   -634.06234574 </i>
   </energy>
  </scstep>
  <scstep>
   <time name="dav">   23.99   24.01</time>
   <time name="total">   26.76   26.77</time>
   <energy>
    <i name="e_fr_energy">   -634.60268578 </i>
    <i name="e_wo_entrp">   -634.54272742 </i>
    <i name="e_0_energy">   -634.57270660 </i>
   </energy>
  </scstep>
  <scstep>
   <time name="dav">   23.45   23.46</time>
   <time name="total">   26.21   26.22</time>
   <energy>
    <i name="e_fr_energy">   -634.76772993 </i>
    <i name="e_wo_entrp">   -634.70446809 </i>
    <i name="e_0_energy">   -634.73609901 </i>
   </energy>
  </scstep>
  <scstep>
   <time name="dav">   24.00   24.01</time>
   <time name="total">   26.76   26.78</time>
   <energy>
    <i name="e_fr_energy">   -635.86806866 </i>
    <i name="e_wo_entrp">   -635.81086536 </i>
    <i name="e_0_energy">   -635.83946701 </i>
   </energy>
  </scstep>
  <scstep>
   <time name="dav">   22.64   22.65</time>
   <time name="total">   25.39   25.41</time>
   <energy>
    <i name="e_fr_energy">   -637.65492041 </i>
    <i name="e_wo_entrp">   -637.59926593 </i>
    <i name="e_0_energy">   -637.62709317 </i>
   </energy>
  </scstep>
  <scstep>
   <time name="dav">   22.05   22.06</time>
   <time name="total">   24.82   24.83</time>
   <energy>
    <i name="e_fr_energy">   -638.94243231 </i>
    <i name="e_wo_entrp">   -638.87865833 </i>
    <i name="e_0_energy">   -638.91054532 </i>
   </energy>
  </scstep>
  <scstep>
   <time name="dav">   23.41   23.43</time>
   <time name="total">   26.16   26.18</time>
   <energy>
    <i name="e_fr_energy">   -639.45266142 </i>
    <i name="e_wo_entrp">   -639.38959497 </i>
    <i name="e_0_energy">   -639.42112819 </i>
   </energy>
  </scstep>
  <scstep>
   <time name="dav">   22.34   22.35</time>
   <time name="total">   25.14   25.15</time>
   <energy>
    <i name="e_fr_energy">   -639.71673495 </i>
    <i name="e_wo_entrp">   -639.65045527 </i>
    <i name="e_0_energy">   -639.68359511 </i>
   </energy>
  </scstep>
  <scstep>
   <time name="dav">   22.97   22.99</time>
   <time name="total">   25.68   25.70</time>
   <energy>
    <i name="e_fr_energy">   -639.79143699 </i>
    <i name="e_wo_entrp">   -639.72651523 </i>
    <i name="e_0_energy">   -639.75897611 </i>
   </energy>
  </scstep>
  <scstep>
   <time name="dav">   22.01   22.02</time>
   <time name="total">   24.72   24.73</time>
   <energy>
    <i name="e_fr_energy">   -639.91265591 </i>
    <i name="e_wo_entrp">   -639.84784152 </i>
    <i name="e_0_energy">   -639.88024871 </i>
   </energy>
  </scstep>
  <scstep>
   <time name="dav">   22.71   22.72</time>
   <time name="total">   25.48   25.50</time>
   <energy>
    <i name="e_fr_energy">   -640.47067343 </i>
    <i name="e_wo_entrp">   -640.41638736 </i>
    <i name="e_0_energy">   -640.44353039 </i>
   </energy>
  </scstep>
  <scstep>
   <time name="dav">   21.76   21.77</time>
   <time name="total">   24.52   24.53</time>
   <energy>
    <i name="e_fr_energy">   -641.74978018 </i>
    <i name="e_wo_entrp">   -641.70305353 </i>
    <i name="e_0_energy">   -641.72641685 </i>
   </energy>
  </scstep>
  <scstep>
   <time name="dav">   22.45   22.46</time>
   <time name="total">   25.27   25.28</time>
   <energy>
    <i name="e_fr_energy">   -642.62850131 </i>
    <i name="e_wo_entrp">   -642.57452399 </i>
    <i name="e_0_energy">   -642.60151265 </i>
   </energy>
  </scstep>
  <scstep>
   <time name="dav">   21.54   21.55</time>
   <time name="total">   24.32   24.33</time>
   <energy>
    <i name="e_fr_energy">   -642.67533698 </i>
    <i name="e_wo_entrp">   -642.62044778 </i>
    <i name="e_0_energy">   -642.64789238 </i>
   </energy>
  </scstep>
  <scstep>
   <time name="dav">   24.59   24.60</time>
   <time name="total">   27.32   27.33</time>
   <energy>
    <i name="e_fr_energy">   -642.79559531 </i>
    <i name="e_wo_entrp">   -642.74394527 </i>
    <i name="e_0_energy">   -642.76977029 </i>
   </energy>
  </scstep>
  <scstep>
   <time name="dav">   22.48   22.49</time>
   <time name="total">   25.19   25.21</time>
   <energy>
    <i name="e_fr_energy">   -642.77689452 </i>
    <i name="e_wo_entrp">   -642.72521045 </i>
    <i name="e_0_energy">   -642.75105248 </i>
   </energy>
  </scstep>
  <scstep>
   <time name="dav">   24.74   24.76</time>
   <time name="total">   27.49   27.50</time>
   <energy>
    <i name="e_fr_energy">   -642.78873265 </i>
    <i name="e_wo_entrp">   -642.73762944 </i>
    <i name="e_0_energy">   -642.76318105 </i>
   </energy>
  </scstep>
  <scstep>
   <time name="dav">   24.04   24.05</time>
   <time name="total">   26.79   26.81</time>
   <energy>
    <i name="e_fr_energy">   -644.24042238 </i>
    <i name="e_wo_entrp">   -644.18069947 </i>
    <i name="e_0_energy">   -644.21056092 </i>
   </energy>
  </scstep>
  <scstep>
   <time name="dav">   23.18   23.19</time>
   <time name="total">   25.94   25.95</time>
   <energy>
    <i name="e_fr_energy">   -644.08098038 </i>
    <i name="e_wo_entrp">   -644.03607967 </i>
    <i name="e_0_energy">   -644.05853002 </i>
   </energy>
  </scstep>
  <scstep>
   <time name="dav">   24.13   24.15</time>
   <time name="total">   26.92   26.93</time>
   <energy>
    <i name="e_fr_energy">   -643.94282551 </i>
    <i name="e_wo_entrp">   -643.88381895 </i>
    <i name="e_0_energy">   -643.91332223 </i>
   </energy>
  </scstep>
  <scstep>
   <time name="dav">   23.47   23.48</time>
   <time name="total">   26.19   26.20</time>
   <energy>
    <i name="e_fr_energy">   -644.16242984 </i>
    <i name="e_wo_entrp">   -644.13687454 </i>
    <i name="e_0_energy">   -644.14965219 </i>
   </energy>
  </scstep>
  <scstep>
   <time name="dav">   24.13   24.15</time>
   <time name="total">   26.84   26.86</time>
   <energy>
    <i name="e_fr_energy">   -644.60477760 </i>
    <i name="e_wo_entrp">   -644.56809716 </i>
    <i name="e_0_energy">   -644.58643738 </i>
   </energy>
  </scstep>
  <scstep>
   <time name="dav">   23.16   23.17</time>
   <time name="total">   25.87   25.88</time>
   <energy>
    <i name="e_fr_energy">   -645.60052348 </i>
    <i name="e_wo_entrp">   -645.54580109 </i>
    <i name="e_0_energy">   -645.57316229 </i>
   </energy>
  </scstep>
  <scstep>
   <time name="dav">   22.83   22.85</time>
   <time name="total">   25.62   25.64</time>
   <energy>
    <i name="e_fr_energy">   -645.70106726 </i>
    <i name="e_wo_entrp">   -645.65384617 </i>
    <i name="e_0_energy">   -645.67745672 </i>
   </energy>
  </scstep>
  <scstep>
   <time name="dav">   25.11   25.12</time>
   <time name="total">   27.81   27.82</time>
   <energy>
    <i name="e_fr_energy">   -645.87338914 </i>
    <i name="e_wo_entrp">   -645.82800671 </i>
    <i name="e_0_energy">   -645.85069793 </i>
   </energy>
  </scstep>
  <scstep>
   <time name="dav">   23.76   23.77</time>
   <time name="total">   26.49   26.50</time>
   <energy>
    <i name="e_fr_energy">   -645.88605955 </i>
    <i name="e_wo_entrp">   -645.84049779 </i>
    <i name="e_0_energy">   -645.86327867 </i>
   </energy>
  </scstep>
  <scstep>
   <time name="dav">   22.09   22.10</time>
   <time name="total">   24.83   24.84</time>
   <energy>
    <i name="e_fr_energy">   -646.00480369 </i>
    <i name="e_wo_entrp">   -645.95670226 </i>
    <i name="e_0_energy">   -645.98075297 </i>
   </energy>
  </scstep>
  <scstep>
   <time name="dav">   22.33   22.35</time>
   <time name="total">   25.10   25.12</time>
   <energy>
    <i name="e_fr_energy">   -645.74733323 </i>
    <i name="e_wo_entrp">   -645.69852366 </i>
    <i name="e_0_energy">   -645.72292845 </i>
   </energy>
  </scstep>
  <scstep>
   <time name="dav">   22.46   22.47</time>
   <time name="total">   25.21   25.22</time>
   <energy>
    <i name="e_fr_energy">   -645.47527612 </i>
    <i name="e_wo_entrp">   -645.43224554 </i>
    <i name="e_0_energy">   -645.45376083 </i>
   </energy>
  </scstep>
  <scstep>
   <time name="dav">   22.08   22.09</time>
   <time name="total">   24.83   24.84</time>
   <energy>
    <i name="e_fr_energy">   -645.57630178 </i>
    <i name="e_wo_entrp">   -645.53602411 </i>
    <i name="e_0_energy">   -645.55616295 </i>
   </energy>
  </scstep>
  <scstep>
   <time name="dav">   23.26   23.27</time>
   <time name="total">   26.00   26.02</time>
   <energy>
    <i name="e_fr_energy">   -645.61428633 </i>
    <i name="e_wo_entrp">   -645.56326970 </i>
    <i name="e_0_energy">   -645.58877802 </i>
   </energy>
  </scstep>
  <scstep>
   <time name="dav">   23.47   23.48</time>
   <time name="total">   26.18   26.19</time>
   <energy>
    <i name="e_fr_energy">   -645.38857803 </i>
    <i name="e_wo_entrp">   -645.33745216 </i>
    <i name="e_0_energy">   -645.36301510 </i>
   </energy>
  </scstep>
  <scstep>
   <time name="dav">   23.82   23.84</time>
   <time name="total">   26.58   26.60</time>
   <energy>
    <i name="e_fr_energy">   -645.13070946 </i>
    <i name="e_wo_entrp">   -645.08650813 </i>
    <i name="e_0_energy">   -645.10860880 </i>
   </energy>
  </scstep>
  <scstep>
   <time name="dav">   21.13   21.14</time>
   <time name="total">   23.84   23.85</time>
   <energy>
    <i name="e_fr_energy">   -645.02058101 </i>
    <i name="e_wo_entrp">   -644.98089552 </i>
    <i name="e_0_energy">   -645.00073826 </i>
   </energy>
  </scstep>
  <scstep>
   <time name="dav">   23.43   23.45</time>
   <time name="total">   26.19   26.20</time>
   <energy>
    <i name="e_fr_energy">   -644.85133873 </i>
    <i name="e_wo_entrp">   -644.81501106 </i>
    <i name="e_0_energy">   -644.83317489 </i>
   </energy>
  </scstep>
  <scstep>
   <time name="dav">   22.78   22.79</time>
   <time name="total">   25.51   25.52</time>
   <energy>
    <i name="e_fr_energy">   -644.79341538 </i>
    <i name="e_wo_entrp">   -644.75578221 </i>
    <i name="e_0_energy">   -644.77459879 </i>
   </energy>
  </scstep>
  <scstep>
   <time name="dav">   23.46   23.47</time>
   <time name="total">   26.19   26.20</time>
   <energy>
    <i name="e_fr_energy">   -644.81136160 </i>
    <i name="e_wo_entrp">   -644.76260586 </i>
    <i name="e_0_energy">   -644.78698373 </i>
   </energy>
  </scstep>
  <scstep>
   <time name="dav">   22.96   22.97</time>
   <time name="total">   25.72   25.73</time>
   <energy>
    <i name="e_fr_energy">   -645.25892728 </i>
    <i name="e_wo_entrp">   -645.21840993 </i>
    <i name="e_0_energy">   -645.23866861 </i>
   </energy>
  </scstep>
  <scstep>
   <time name="dav">   20.49   20.50</time>
   <time name="total">   23.25   23.26</time>
   <energy>
    <i name="e_fr_energy">   -645.25421132 </i>
    <i name="e_wo_entrp">   -645.21423525 </i>
    <i name="e_0_energy">   -645.23422328 </i>
   </energy>
  </scstep>
  <scstep>
   <time name="dav">   27.41   27.43</time>
   <time name="total">   30.17   30.19</time>
   <energy>
    <i name="e_fr_energy">   -645.22593021 </i>
    <i name="e_wo_entrp">   -645.18607567 </i>
    <i name="e_0_energy">   -645.20600294 </i>
   </energy>
  </scstep>
  <scstep>
   <time name="dav">   24.55   24.56</time>
   <time name="total">   27.27   27.28</time>
   <energy>
    <i name="e_fr_energy">   -645.22414625 </i>
    <i name="e_wo_entrp">   -645.18577790 </i>
    <i name="e_0_energy">   -645.20496208 </i>
   </energy>
  </scstep>
  <scstep>
   <time name="dav">   22.68   22.69</time>
   <time name="total">   25.41   25.43</time>
   <energy>
    <i name="e_fr_energy">   -645.21825575 </i>
    <i name="e_wo_entrp">   -645.17879911 </i>
    <i name="e_0_energy">   -645.19852743 </i>
   </energy>
  </scstep>
  <scstep>
   <time name="dav">   23.76   23.77</time>
   <time name="total">   26.47   26.49</time>
   <energy>
    <i name="e_fr_energy">   -645.34002062 </i>
    <i name="e_wo_entrp">   -645.29069054 </i>
    <i name="e_0_energy">   -645.31535558 </i>
   </energy>
  </scstep>
  <scstep>
   <time name="dav">   24.26   24.27</time>
   <time name="total">   27.04   27.06</time>
   <energy>
    <i name="e_fr_energy">   -645.24968888 </i>
    <i name="e_wo_entrp">   -645.19788102 </i>
    <i name="e_0_energy">   -645.22378495 </i>
   </energy>
  </scstep>
  <scstep>
   <time name="dav">   20.37   20.38</time>
   <time name="total">   23.12   23.13</time>
   <energy>
    <i name="e_fr_energy">   -645.37129629 </i>
    <i name="e_wo_entrp">   -645.31565383 </i>
    <i name="e_0_energy">   -645.34347506 </i>
   </energy>
  </scstep>
  <scstep>
   <time name="dav">   22.92   22.93</time>
   <time name="total">   25.63   25.65</time>
   <energy>
    <i name="e_fr_energy">   -645.59397413 </i>
    <i name="e_wo_entrp">   -645.53442235 </i>
    <i name="e_0_energy">   -645.56419824 </i>
   </energy>
  </scstep>
  <scstep>
   <time name="dav">   23.48   23.49</time>
   <time name="total">   26.24   26.26</time>
   <energy>
    <i name="e_fr_energy">   -645.67621626 </i>
    <i name="e_wo_entrp">   -645.62917130 </i>
    <i name="e_0_energy">   -645.65269378 </i>
   </energy>
  </scstep>
  <scstep>
   <time name="dav">   23.36   23.37</time>
   <time name="total">   26.10   26.12</time>
   <energy>
    <i name="e_fr_energy">   -645.77541339 </i>
    <i name="e_wo_entrp">   -645.73864202 </i>
    <i name="e_0_energy">   -645.75702771 </i>
   </energy>
  </scstep>
  <scstep>
   <time name="dav">   21.27   21.28</time>
   <time name="total">   24.01   24.02</time>
   <energy>
    <i name="e_fr_energy">   -645.83388520 </i>
    <i name="e_wo_entrp">   -645.77737023 </i>
    <i name="e_0_energy">   -645.80562771 </i>
   </energy>
  </scstep>
  <scstep>
   <time name="dav">   20.54   20.55</time>
   <time name="total">   23.30   23.31</time>
   <energy>
    <i name="e_fr_energy">   -645.80700428 </i>
    <i name="e_wo_entrp">   -645.75229881 </i>
    <i name="e_0_energy">   -645.77965154 </i>
   </energy>
  </scstep>
  <scstep>
   <time name="dav">   25.70   25.72</time>
   <time name="total">   28.42   28.43</time>
   <energy>
    <i name="e_fr_energy">   -645.81783794 </i>
    <i name="e_wo_entrp">   -645.75923740 </i>
    <i name="e_0_energy">   -645.78853767 </i>
   </energy>
  </scstep>
  <scstep>
   <time name="dav">   22.71   22.72</time>
   <time name="total">   25.41   25.43</time>
   <energy>
    <i name="e_fr_energy">   -645.84654394 </i>
    <i name="e_wo_entrp">   -645.78393224 </i>
    <i name="e_0_energy">   -645.81523809 </i>
   </energy>
  </scstep>
  <scstep>
   <time name="dav">   23.72   23.73</time>
   <time name="total">   26.44   26.45</time>
   <energy>
    <i name="e_fr_energy">   -645.83788081 </i>
    <i name="e_wo_entrp">   -645.77615425 </i>
    <i name="e_0_energy">   -645.80701753 </i>
   </energy>
  </scstep>
  <scstep>
   <time name="dav">   22.11   22.13</time>
   <time name="total">   24.88   24.89</time>
   <energy>
    <i name="e_fr_energy">   -645.91402475 </i>
    <i name="e_wo_entrp">   -645.85051328 </i>
    <i name="e_0_energy">   -645.88226901 </i>
   </energy>
  </scstep>
  <scstep>
   <time name="dav">   23.51   23.52</time>
   <time name="total">   26.24   26.26</time>
   <energy>
    <i name="e_fr_energy">   -645.91312687 </i>
    <i name="e_wo_entrp">   -645.84975067 </i>
    <i name="e_0_energy">   -645.88143877 </i>
   </energy>
  </scstep>
  <scstep>
   <time name="dav">   22.53   22.54</time>
   <time name="total">   25.25   25.26</time>
   <energy>
    <i name="e_fr_energy">   -645.90107822 </i>
    <i name="e_wo_entrp">   -645.83701523 </i>
    <i name="e_0_energy">   -645.86904673 </i>
   </energy>
  </scstep>
  <scstep>
   <time name="dav">   22.42   22.43</time>
   <time name="total">   23.80   23.82</time>
   <energy>
    <i name="alphaZ">   1839.19756306 </i>
    <i name="ewald"> 117433.20424339 </i>
    <i name="hartreedc">-171486.55795467 </i>
    <i name="XCdc">   2031.56969019 </i>
    <i name="pawpsdc">  52888.18407987 </i>
    <i name="pawaedc"> -52184.41047932 </i>
    <i name="eentropy">     -0.06399390 </i>
    <i name="bandstr">  -7982.42640560 </i>
    <i name="atom">  56815.39572979 </i>
    <i name="e_fr_energy">   -645.90752720 </i>
    <i name="e_wo_entrp">   -645.84353330 </i>
    <i name="e_0_energy">   -645.87553025 </i>
   </energy>
  </scstep>
  <structure>
   <crystal>
    <varray name="basis" >
     <v>      11.59820000       0.00000000       0.00000000 </v>
     <v>      -5.79910000      10.04433584       0.00000000 </v>
     <v>       0.00000000       0.00000000      21.04820000 </v>
    </varray>
    <i name="volume">   2452.03565189 </i>
    <varray name="rec_basis" >
     <v>       0.08622028       0.04977930       0.00000000 </v>
     <v>       0.00000000       0.09955860       0.00000000 </v>
     <v>       0.00000000       0.00000000       0.04751000 </v>
    </varray>
   </crystal>
   <varray name="positions" >
    <v>       0.00000000       0.00000000       0.45993000 </v>
    <v>       0.66667000       0.00000000       0.45993000 </v>
    <v>       0.00000000       0.33333000       0.45993000 </v>
    <v>       0.33333000       0.33333000       0.45993000 </v>
    <v>       0.33333000       0.66667000       0.45993000 </v>
    <v>       0.66667000       0.66667000       0.45993000 </v>
    <v>       0.22222000       0.11111000       0.30996000 </v>
    <v>       0.11111000       0.22222000       0.15999000 </v>
    <v>       0.33333000       0.00000000       0.45993000 </v>
    <v>       0.55556000       0.11111000       0.30996000 </v>
    <v>       0.44444000       0.22222000       0.15999000 </v>
    <v>       0.88889000       0.11111000       0.30996000 </v>
    <v>       0.77778000       0.22222000       0.15999000 </v>
    <v>       0.22222000       0.44444000       0.30996000 </v>
    <v>       0.11111000       0.55556000       0.15999000 </v>
    <v>       0.55556000       0.44444000       0.30996000 </v>
    <v>       0.44444000       0.55556000       0.15999000 </v>
    <v>       0.66667000       0.33333000       0.45993000 </v>
    <v>       0.88889000       0.44444000       0.30996000 </v>
    <v>       0.77778000       0.55556000       0.15999000 </v>
    <v>       0.00000000       0.66667000       0.45993000 </v>
    <v>       0.22222000       0.77778000       0.30996000 </v>
    <v>       0.11111000       0.88889000       0.15999000 </v>
    <v>       0.55556000       0.77778000       0.30996000 </v>
    <v>       0.44444000       0.88889000       0.15999000 </v>
    <v>       0.88889000       0.77778000       0.30996000 </v>
    <v>       0.77778000       0.88889000       0.15999000 </v>
    <v>       0.00000000       0.00000000       0.12250000 </v>
    <v>       0.00000000       0.00000000       0.57241000 </v>
    <v>       0.11111000       0.22222000       0.27247000 </v>
    <v>       0.22222000       0.11111000       0.42244000 </v>
    <v>       0.11111000       0.22222000       0.04751000 </v>
    <v>       0.11111000       0.22222000       0.49742000 </v>
    <v>       0.00000000       0.00000000       0.34745000 </v>
    <v>       0.22222000       0.11111000       0.19748000 </v>
    <v>       0.33333000       0.00000000       0.12250000 </v>
    <v>       0.33333000       0.00000000       0.57241000 </v>
    <v>       0.44444000       0.22222000       0.27247000 </v>
    <v>       0.55556000       0.11111000       0.42244000 </v>
    <v>       0.44444000       0.22222000       0.04751000 </v>
    <v>       0.44444000       0.22222000       0.49742000 </v>
    <v>       0.33333000       0.00000000       0.34745000 </v>
    <v>       0.55556000       0.11111000       0.19748000 </v>
    <v>       0.66667000       0.00000000       0.12250000 </v>
    <v>       0.66667000       0.00000000       0.57241000 </v>
    <v>       0.77778000       0.22222000       0.27247000 </v>
    <v>       0.88889000       0.11111000       0.42244000 </v>
    <v>       0.77778000       0.22222000       0.04751000 </v>
    <v>       0.77778000       0.22222000       0.49742000 </v>
    <v>       0.66667000       0.00000000       0.34745000 </v>
    <v>       0.88889000       0.11111000       0.19748000 </v>
    <v>       0.00000000       0.33333000       0.12250000 </v>
    <v>       0.00000000       0.33333000       0.57241000 </v>
    <v>       0.11111000       0.55556000       0.27247000 </v>
    <v>       0.22222000       0.44444000       0.42244000 </v>
    <v>       0.11111000       0.55556000       0.04751000 </v>
    <v>       0.11111000       0.55556000       0.49742000 </v>
    <v>       0.00000000       0.33333000       0.34745000 </v>
    <v>       0.22222000       0.44444000       0.19748000 </v>
    <v>       0.33333000       0.33333000       0.12250000 </v>
    <v>       0.33333000       0.33333000       0.57241000 </v>
    <v>       0.44444000       0.55556000       0.27247000 </v>
    <v>       0.55556000       0.44444000       0.42244000 </v>
    <v>       0.44444000       0.55556000       0.04751000 </v>
    <v>       0.44444000       0.55556000       0.49742000 </v>
    <v>       0.33333000       0.33333000       0.34745000 </v>
    <v>       0.55556000       0.44444000       0.19748000 </v>
    <v>       0.66667000       0.33333000       0.12250000 </v>
    <v>       0.66667000       0.33333000       0.57241000 </v>
    <v>       0.77778000       0.55556000       0.27247000 </v>
    <v>       0.88889000       0.44444000       0.42244000 </v>
    <v>       0.77778000       0.55556000       0.04751000 </v>
    <v>       0.77778000       0.55556000       0.49742000 </v>
    <v>       0.66667000       0.33333000       0.34745000 </v>
    <v>       0.88889000       0.44444000       0.19748000 </v>
    <v>       0.00000000       0.66667000       0.12250000 </v>
    <v>       0.00000000       0.66667000       0.57241000 </v>
    <v>       0.11111000       0.88889000       0.27247000 </v>
    <v>       0.22222000       0.77778000       0.42244000 </v>
    <v>       0.11111000       0.88889000       0.04751000 </v>
    <v>       0.11111000       0.88889000       0.49742000 </v>
    <v>       0.00000000       0.66667000       0.34745000 </v>
    <v>       0.22222000       0.77778000       0.19748000 </v>
    <v>       0.33333000       0.66667000       0.12250000 </v>
    <v>       0.33333000       0.66667000       0.57241000 </v>
    <v>       0.44444000       0.88889000       0.27247000 </v>
    <v>       0.55556000       0.77778000       0.42244000 </v>
    <v>       0.44444000       0.88889000       0.04751000 </v>
    <v>       0.44444000       0.88889000       0.49742000 </v>
    <v>       0.33333000       0.66667000       0.34745000 </v>
    <v>       0.55556000       0.77778000       0.19748000 </v>
    <v>       0.66667000       0.66667000       0.12250000 </v>
    <v>       0.66667000       0.66667000       0.57241000 </v>
    <v>       0.77778000       0.88889000       0.27247000 </v>
    <v>       0.88889000       0.77778000       0.42244000 </v>
    <v>       0.77778000       0.88889000       0.04751000 </v>
    <v>       0.77778000       0.88889000       0.49742000 </v>
    <v>       0.66667000       0.66667000       0.34745000 </v>
    <v>       0.88889000       0.77778000       0.19748000 </v>
   </varray>
  </structure>
  <varray name="forces" >
   <v>      -0.15116108       0.08727289       1.57023806 </v>
   <v>       0.03327045      -0.02156114       1.45031199 </v>
   <v>       0.03530772      -0.01803248       1.45031199 </v>
   <v>      -0.01262411       0.03520882       1.55554362 </v>
   <v>       0.02377447      -0.01372620       1.49264910 </v>
   <v>      -0.03680378      -0.00667160       1.55554362 </v>
   <v>       0.00414719      -0.08079837      -0.28046799 </v>
   <v>      -0.02734345      -0.09452467      -0.82166074 </v>
   <v>      -0.05519100       0.17428951       1.07135867 </v>
   <v>      -0.08357412       0.04322188      -0.26961383 </v>
   <v>       0.17838347       0.09276528      -0.76687843 </v>
   <v>       0.07878905      -0.04548888      -0.39618352 </v>
   <v>      -0.14760005       0.08521693      -0.16005905 </v>
   <v>       0.00464736      -0.00826061      -0.38045642 </v>
   <v>      -0.16034713      -0.11148473      -0.49576928 </v>
   <v>       0.07093224      -0.04095275      -0.40776436 </v>
   <v>       0.14988298      -0.08653498      -0.36748562 </v>
   <v>      -0.09816919       0.05667801       0.81172505 </v>
   <v>      -0.07921831       0.05076637      -0.26961383 </v>
   <v>       0.00885464      -0.20086726      -0.76687843 </v>
   <v>      -0.17853465      -0.03934795       1.07135867 </v>
   <v>      -0.07895828       0.04558659      -0.18835042 </v>
   <v>      -0.08400770       0.04850187      -0.75533986 </v>
   <v>       0.00947758       0.00010557      -0.38045642 </v>
   <v>       0.01637504       0.19460705      -0.49576928 </v>
   <v>       0.07204703       0.03680761      -0.28046799 </v>
   <v>       0.06818904       0.07094246      -0.82166074 </v>
   <v>       0.01934733      -0.01117019      -0.02330714 </v>
[...]
    <v>       0.33333000       0.00000000       0.12250000 </v>
    <v>       0.33891028       0.99841643       0.56545424 </v>
    <v>       0.44266199       0.22443120       0.27804579 </v>
    <v>       0.57079276       0.09657647       0.43494480 </v>
    <v>       0.44444000       0.22222000       0.04751000 </v>
    <v>       0.43119990       0.23653440       0.47395883 </v>
    <v>       0.33197800       0.00140473       0.35324355 </v>
    <v>       0.55556000       0.11111000       0.19748000 </v>
    <v>       0.66667000       0.00000000       0.12250000 </v>
    <v>       0.66376568       0.99997851       0.54605010 </v>
    <v>       0.77994424       0.22005576       0.28004991 </v>
    <v>       0.89534992       0.10465008       0.43736486 </v>
    <v>       0.77778000       0.22222000       0.04751000 </v>
    <v>       0.79061287       0.20938713       0.48323691 </v>
    <v>       0.67381831       0.99308253       0.35980333 </v>
    <v>       0.88889000       0.11111000       0.19748000 </v>
    <v>       0.00000000       0.33333000       0.12250000 </v>
    <v>       0.00002149       0.33623432       0.54605010 </v>
    <v>       0.11343704       0.55338500       0.28014794 </v>
    <v>       0.22787186       0.43572702       0.43749664 </v>
    <v>       0.11111000       0.55556000       0.04751000 </v>
    <v>       0.12538981       0.54370362       0.48301023 </v>
    <v>       0.00691747       0.32618169       0.35980333 </v>
    <v>       0.22222000       0.44444000       0.19748000 </v>
    <v>       0.33333000       0.33333000       0.12250000 </v>
    <v>       0.32677940       0.34418998       0.54517877 </v>
    <v>       0.44433573       0.55566427       0.27907614 </v>
    <v>       0.54110697       0.45889303       0.43617696 </v>
    <v>       0.44444000       0.55556000       0.04751000 </v>
    <v>       0.43738721       0.56261279       0.48025982 </v>
    <v>       0.33220127       0.33430991       0.35887033 </v>
    <v>       0.55556000       0.44444000       0.19748000 </v>
    <v>       0.66667000       0.33333000       0.12250000 </v>
    <v>       0.66884563       0.33115437       0.56620180 </v>
    <v>       0.77556880       0.55733801       0.27804579 </v>
    <v>       0.90342353       0.42920724       0.43494480 </v>
    <v>       0.77778000       0.55556000       0.04751000 </v>
    <v>       0.76346560       0.56880010       0.47395883 </v>
    <v>       0.66499881       0.33500119       0.35378566 </v>
    <v>       0.88889000       0.44444000       0.19748000 </v>
    <v>       0.00000000       0.66667000       0.12250000 </v>
    <v>       0.00158357       0.66108972       0.56545424 </v>
    <v>       0.10928894       0.89071106       0.27828316 </v>
    <v>       0.23625223       0.76374777       0.43477139 </v>
    <v>       0.11111000       0.88889000       0.04751000 </v>
    <v>       0.09618372       0.90381628       0.47534362 </v>
    <v>       0.99859527       0.66802200       0.35324355 </v>
    <v>       0.22222000       0.77778000       0.19748000 </v>
    <v>       0.33333000       0.66667000       0.12250000 </v>
    <v>       0.33306182       0.66693818       0.54695151 </v>
    <v>       0.44661500       0.88656296       0.28014794 </v>
    <v>       0.56427298       0.77212814       0.43749664 </v>
    <v>       0.44444000       0.88889000       0.04751000 </v>
    <v>       0.45629638       0.87461019       0.48301023 </v>
    <v>       0.34032304       0.65967696       0.36077354 </v>
    <v>       0.55556000       0.77778000       0.19748000 </v>
    <v>       0.66667000       0.66667000       0.12250000 </v>
    <v>       0.65581002       0.67322060       0.54517877 </v>
    <v>       0.77729320       0.88877167       0.27895201 </v>
    <v>       0.87509260       0.79133708       0.43551257 </v>
    <v>       0.77778000       0.88889000       0.04751000 </v>
    <v>       0.77427876       0.89705131       0.48087612 </v>
    <v>       0.66569009       0.66779873       0.35887033 </v>
    <v>       0.88889000       0.77778000       0.19748000 </v>
   </varray>
  </structure>
  <varray name="forces" >
   <v>       0.47782495      -0.27587236      -2.92857359 </v>
   <v>      -0.02931306      -0.02286251      -0.45553696 </v>
   <v>       0.00514299       0.03681711      -0.45553696 </v>
   <v>       0.25547123      -0.10335867       1.50251130 </v>
   <v>      -0.18324459       0.10579631      -0.43505651 </v>
   <v>       0.21724685      -0.16956524       1.50251130 </v>
   <v>      -0.24583094      -0.12387331      -0.08383414 </v>
   <v>      -0.06450375       0.05104219      -0.30800972 </v>
   <v>      -0.05815733       0.09952601       0.74150419 </v>
   <v>       0.28706336      -0.19868720       0.10615634 </v>
   <v>      -0.05127219       0.02868733      -0.44058745 </v>
   <v>       0.04538343      -0.02620213      -0.42531970 </v>
   <v>       0.11974147      -0.06913277      -0.33607694 </v>
   <v>      -0.22021896       0.11022402      -0.43704655 </v>
   <v>       0.13092569      -0.05806491      -0.27437233 </v>
   <v>      -0.05287182       0.03052556      -0.15961447 </v>
   <v>      -0.07266679       0.04195419      -0.26959308 </v>
   <v>      -0.00744631       0.00429913       0.70903839 </v>
   <v>       0.31559985      -0.14926056       0.10615634 </v>
   <v>      -0.05048005       0.03005936      -0.44058745 </v>
   <v>      -0.11527072       0.00060272       0.74150419 </v>
   <v>       0.28136225      -0.16244457       0.06081917 </v>
   <v>      -0.03478588       0.02008363      -0.40243666 </v>
   <v>      -0.20556628       0.13560321      -0.43704655 </v>
   <v>       0.11574853      -0.08435252      -0.27437233 </v>
   <v>      -0.01563804       0.27483249      -0.08383414 </v>
   <v>      -0.07645571       0.03034079      -0.30800972 </v>
   <v>       0.02622638      -0.01514181       0.00369939 </v>
   <v>      -0.28820055       0.16639267       2.65649299 </v>
   <v>       0.26431159      -0.13426680      -0.10792340 </v>
   <v>      -0.23100124       0.16658342      -0.18919788 </v>
   <v>       0.00593976       0.01863212       0.06825303 </v>
   <v>       0.13069806       0.02100799      -0.18635045 </v>
   <v>       0.24405597      -0.14090578      -0.14460493 </v>
   <v>       0.00014104       0.00820425       0.77304727 </v>
   <v>       0.01387684       0.00193850       0.01452115 </v>
   <v>       0.01454876      -0.01814850      -0.41717135 </v>
   <v>       0.11468404      -0.05919002       0.12455196 </v>
   <v>       0.01173348      -0.09542073      -0.36962288 </v>
   <v>      -0.01378883       0.00761770       0.10113721 </v>
   <v>      -0.34483213       0.09019581      -0.73796059 </v>
   <v>       0.05306873       0.01044753       0.14631634 </v>
   <v>      -0.01426792       0.01386326       0.98019257 </v>
   <v>      -0.03525278       0.03635714      -0.01630715 </v>
   <v>      -0.20729604       0.08905130       0.71444360 </v>
   <v>      -0.24065611       0.13894287       0.16112411 </v>
   <v>      -0.47470695       0.27407218      -0.36902750 </v>
   <v>       0.01588631      -0.00917197       0.10813931 </v>
   <v>       0.59501383      -0.34353139      -0.47207123 </v>
   <v>      -0.18809346       0.14693025       0.22250616 </v>
   <v>       0.03333629      -0.01924671       0.73027761 </v>
   <v>      -0.04911259       0.01235123      -0.01630715 </v>
   <v>      -0.18076871       0.13499799       0.71444360 </v>
   <v>      -0.19641125       0.10717162       0.16572915 </v>
   <v>      -0.47120258       0.20147380      -0.52206816 </v>
   <v>       0.01897103       0.00017044       0.08638489 </v>
   <v>       0.64325194      -0.31385121      -0.47783513 </v>
   <v>      -0.22129206       0.08942859       0.22250616 </v>
   <v>       0.04429864      -0.01332351       0.72438285 </v>
   <v>       0.02760281      -0.01001516      -0.03465547 </v>
   <v>      -0.13973423       0.04454048      -0.94222860 </v>
   <v>       0.24780895      -0.14307256      -0.07901389 </v>
   <v>      -0.27740647       0.16016070      -0.31975072 </v>
   <v>       0.00229734      -0.00132637       0.05773354 </v>
   <v>       0.20891268      -0.12061579      -0.16750059 </v>
   <v>       0.29913304      -0.16682386      -0.21441293 </v>
   <v>      -0.00667715       0.00385505       0.77888859 </v>
   <v>       0.01287168      -0.00743147       0.01663105 </v>
   <v>       0.08473884      -0.04892399      -0.28522801 </v>
   <v>       0.10860208      -0.06972428       0.12455196 </v>
   <v>       0.08850351       0.03754888      -0.36962288 </v>
   <v>      -0.01349153       0.00813262       0.10113721 </v>
   <v>      -0.25052792       0.25353548      -0.73796059 </v>
   <v>       0.04526756      -0.02613524       0.03211058 </v>
   <v>      -0.01913989       0.00542476       0.98019257 </v>
   <v>       0.00525963      -0.01298695       0.01452115 </v>
   <v>       0.02299144      -0.00352534      -0.41717135 </v>
   <v>       0.08783144      -0.05070951       0.09301052 </v>
   <v>      -0.04823250       0.02784705      -0.37477250 </v>
   <v>      -0.00917134       0.00529508       0.10176209 </v>
   <v>      -0.23594436       0.13622254      -0.58235510 </v>
   <v>       0.01748653      -0.05118263       0.14631634 </v>
   <v>      -0.01047414       0.00604725       0.95373752 </v>
   <v>      -0.03371236       0.01946384      -0.03716091 </v>
   <v>      -0.15708732       0.09069441       0.63796607 </v>
   <v>      -0.19101897       0.11651132       0.16572915 </v>
   <v>      -0.41008271       0.30733651      -0.52206816 </v>
   <v>       0.00933791      -0.01651461       0.08638489 </v>
   <v>       0.59342909      -0.40014692      -0.47783513 </v>
   <v>      -0.15770702       0.09105219       0.17369171 </v>
   <v>       0.03368782      -0.03170200       0.72438285 </v>
   <v>       0.02247479      -0.01889716      -0.03465547 </v>
   <v>      -0.10844030       0.09874315      -0.94222860 </v>
   <v>       0.24843426      -0.16176715      -0.10792340 </v>
   <v>      -0.25976609       0.11676123      -0.18919788 </v>
   <v>      -0.01316601      -0.01446004       0.06825303 </v>
   <v>       0.04715557      -0.12369183      -0.18635045 </v>
   <v>       0.29404022      -0.17564488      -0.21441293 </v>
   <v>      -0.00703457      -0.00422427       0.77304727 </v>
  </varray>
  <varray name="stress" >
   <v>     -28.07116112      -1.44905623      -2.31542122 </v>
   <v>      -1.44905623     -29.74438713       1.33680907 </v>
   <v>      -2.31565100       1.33694173     -16.65927397 </v>
  </varray>
  <energy>
   <i name="e_fr_energy">   -663.25691665 </i>
   <i name="e_wo_entrp">   -663.18998113 </i>
   <i name="e_0_energy">   -663.22344889 </i>
  </energy>
  <time name="totalsc"> 2368.45 2369.93</time>
 </calculation>
 <calculation>
  <scstep>
   <time name="dav">   17.35   17.36</time>
   <time name="total">   19.96   19.97</time>
   <energy>
    <i name="alphaZ">   1839.19756306 </i>
    <i name="ewald"> 123059.48549197 </i>
    <i name="hartreedc">-176923.12572635 </i>
    <i name="XCdc">   2043.98351938 </i>
    <i name="pawpsdc">  55162.48456432 </i>
    <i name="pawaedc"> -54478.06453278 </i>
    <i name="eentropy">     -0.03286659 </i>
    <i name="bandstr">  -8182.62864800 </i>
    <i name="atom">  56815.39572979 </i>
    <i name="e_fr_energy">   -663.30490521 </i>
    <i name="e_wo_entrp">   -663.27203862 </i>
    <i name="e_0_energy">   -663.28847191 </i>
   </energy>
  </scstep>
  <scstep>
   <time name="dav">   23.88   23.90</time>
   <time name="total">   26.51   26.52</time>
   <energy>
    <i name="e_fr_energy">   -665.36196646 </i>
    <i name="e_wo_entrp">   -665.25788336 </i>
    <i name="e_0_energy">   -665.30992491 </i>
   </energy>
  </scstep>
  <scstep>
   <time name="dav">   27.27   27.28</time>
   <time name="total">   29.90   29.92</time>
   <energy>
    <i name="e_fr_energy">   -663.84718619 </i>
    <i name="e_wo_entrp">   -663.82916083 </i>
    <i name="e_0_energy">   -663.83817351 </i>
   </energy>
  </scstep>
  <scstep>
   <time name="dav">   26.59   26.61</time>
   <time name="total">   29.17   29.18</time>
   <energy>
    <i name="e_fr_energy">   -664.40776864 </i>
    <i name="e_wo_entrp">   -664.39059150 </i>
    <i name="e_0_energy">   -664.39918007 </i>
   </energy>
  </scstep>
  <scstep>
   <time name="dav">   26.63   26.65</time>
   <time name="total">   29.24   29.26</time>
   <energy>
    <i name="e_fr_energy">   -664.59830301 </i>
    <i name="e_wo_entrp">   -664.56360512 </i>
    <i name="e_0_energy">   -664.58095406 </i>
   </energy>
  </scstep>
  <scstep>
   <time name="dav">   27.18   27.20</time>
   <time name="total">   29.81   29.82</time>
   <energy>
    <i name="e_fr_energy">   -664.47183251 </i>
    <i name="e_wo_entrp">   -664.45542101 </i>
    <i name="e_0_energy">   -664.46362676 </i>
   </energy>
  </scstep>
  <scstep>
   <time name="dav">   26.48   26.50</time>
   <time name="total">   29.09   29.11</time>
   <energy>
    <i name="e_fr_energy">   -664.39857438 </i>
    <i name="e_wo_entrp">   -664.38041292 </i>
    <i name="e_0_energy">   -664.38949365 </i>
   </energy>
  </scstep>
  <scstep>
   <time name="dav">   25.10   25.12</time>
   <time name="total">   27.76   27.78</time>
   <energy>
    <i name="e_fr_energy">   -664.31773847 </i>
    <i name="e_wo_entrp">   -664.30008707 </i>
    <i name="e_0_energy">   -664.30891277 </i>
   </energy>
  </scstep>
  <scstep>
   <time name="dav">   25.53   25.55</time>
   <time name="total">   28.15   28.17</time>
   <energy>
    <i name="e_fr_energy">   -664.21975358 </i>
    <i name="e_wo_entrp">   -664.20239067 </i>
    <i name="e_0_energy">   -664.21107213 </i>
   </energy>
  </scstep>
  <scstep>
   <time name="dav">   24.98   24.99</time>
   <time name="total">   27.58   27.59</time>
   <energy>
    <i name="e_fr_energy">   -664.16262161 </i>
    <i name="e_wo_entrp">   -664.14524304 </i>
    <i name="e_0_energy">   -664.15393232 </i>
   </energy>
  </scstep>
  <scstep>
   <time name="dav">   23.72   23.73</time>
   <time name="total">   26.32   26.33</time>
   <energy>
    <i name="e_fr_energy">   -664.13750854 </i>
    <i name="e_wo_entrp">   -664.12022222 </i>
    <i name="e_0_energy">   -664.12886538 </i>
   </energy>
  </scstep>
  <scstep>
   <time name="dav">   28.63   28.65</time>
   <time name="total">   31.22   31.24</time>
   <energy>
    <i name="e_fr_energy">   -664.08097297 </i>
    <i name="e_wo_entrp">   -664.06376432 </i>
    <i name="e_0_energy">   -664.07236865 </i>
   </energy>
  </scstep>
  <scstep>
   <time name="dav">   27.34   27.35</time>
   <time name="total">   29.96   29.98</time>
   <energy>
    <i name="e_fr_energy">   -663.95975729 </i>
    <i name="e_wo_entrp">   -663.94285838 </i>
    <i name="e_0_energy">   -663.95130784 </i>
   </energy>
  </scstep>
  <scstep>
   <time name="dav">   26.47   26.48</time>
   <time name="total">   29.09   29.10</time>
   <energy>
    <i name="e_fr_energy">   -663.79525668 </i>
    <i name="e_wo_entrp">   -663.77859451 </i>
    <i name="e_0_energy">   -663.78692559 </i>
   </energy>
  </scstep>
  <scstep>
   <time name="dav">   22.23   22.25</time>
   <time name="total">   24.90   24.92</time>
   <energy>
    <i name="e_fr_energy">   -663.76404157 </i>
    <i name="e_wo_entrp">   -663.74744932 </i>
    <i name="e_0_energy">   -663.75574545 </i>
   </energy>
  </scstep>
  <scstep>
   <time name="dav">   27.98   28.00</time>
   <time name="total">   30.58   30.60</time>
   <energy>
    <i name="e_fr_energy">   -663.69781448 </i>
    <i name="e_wo_entrp">   -663.68130752 </i>
    <i name="e_0_energy">   -663.68956100 </i>
   </energy>
  </scstep>
  <scstep>
   <time name="dav">   26.81   26.83</time>
   <time name="total">   29.47   29.48</time>
   <energy>
    <i name="e_fr_energy">   -663.59692297 </i>
    <i name="e_wo_entrp">   -663.56351983 </i>
    <i name="e_0_energy">   -663.58022140 </i>
   </energy>
  </scstep>
  <scstep>
   <time name="dav">   22.58   22.59</time>
   <time name="total">   25.19   25.20</time>
   <energy>
    <i name="e_fr_energy">   -663.59488301 </i>
    <i name="e_wo_entrp">   -663.56090595 </i>
    <i name="e_0_energy">   -663.57789448 </i>
   </energy>
  </scstep>
  <scstep>
   <time name="dav">   30.00   30.02</time>
   <time name="total">   32.64   32.66</time>
   <energy>
    <i name="e_fr_energy">   -663.59898080 </i>
    <i name="e_wo_entrp">   -663.56823776 </i>
    <i name="e_0_energy">   -663.58360928 </i>
   </energy>
  </scstep>
  <scstep>
   <time name="dav">   26.34   26.36</time>
   <time name="total">   28.96   28.97</time>
   <energy>
    <i name="e_fr_energy">   -663.58213150 </i>
    <i name="e_wo_entrp">   -663.54169958 </i>
    <i name="e_0_energy">   -663.56191554 </i>
   </energy>
  </scstep>
  <scstep>
   <time name="dav">   23.77   23.79</time>
   <time name="total">   26.41   26.42</time>
   <energy>
    <i name="e_fr_energy">   -663.58188604 </i>
    <i name="e_wo_entrp">   -663.54136886 </i>
    <i name="e_0_energy">   -663.56162745 </i>
   </energy>
  </scstep>
  <scstep>
   <time name="dav">   30.02   30.04</time>
   <time name="total">   32.68   32.70</time>
   <energy>
    <i name="e_fr_energy">   -663.58194718 </i>
    <i name="e_wo_entrp">   -663.54144613 </i>
    <i name="e_0_energy">   -663.56169665 </i>
   </energy>
  </scstep>
  <scstep>
   <time name="dav">   26.55   26.57</time>
   <time name="total">   29.14   29.16</time>
   <energy>
    <i name="e_fr_energy">   -663.57672356 </i>
    <i name="e_wo_entrp">   -663.52609569 </i>
    <i name="e_0_energy">   -663.55140963 </i>
   </energy>
  </scstep>
  <scstep>
   <time name="dav">   22.05   22.06</time>
   <time name="total">   24.66   24.67</time>
   <energy>
    <i name="e_fr_energy">   -663.57661712 </i>
    <i name="e_wo_entrp">   -663.52959897 </i>
    <i name="e_0_energy">   -663.55310804 </i>
   </energy>
  </scstep>
  <scstep>
   <time name="dav">   24.27   24.29</time>
   <time name="total">   26.93   26.95</time>
   <energy>
    <i name="e_fr_energy">   -663.57727962 </i>
    <i name="e_wo_entrp">   -663.53145624 </i>
    <i name="e_0_energy">   -663.55436793 </i>
   </energy>
  </scstep>
  <scstep>
   <time name="dav">   25.29   25.31</time>
   <time name="total">   27.92   27.94</time>
   <energy>
    <i name="e_fr_energy">   -663.57629128 </i>
    <i name="e_wo_entrp">   -663.52750473 </i>
    <i name="e_0_energy">   -663.55189800 </i>
   </energy>
  </scstep>
  <scstep>
   <time name="dav">   24.00   24.02</time>
   <time name="total">   26.62   26.64</time>
   <energy>
    <i name="e_fr_energy">   -663.57613788 </i>
    <i name="e_wo_entrp">   -663.52730130 </i>
    <i name="e_0_energy">   -663.55171959 </i>
   </energy>
  </scstep>
  <scstep>
   <time name="dav">   25.83   25.85</time>
   <time name="total">   28.47   28.48</time>
   <energy>
    <i name="e_fr_energy">   -663.57544449 </i>
    <i name="e_wo_entrp">   -663.52519643 </i>
    <i name="e_0_energy">   -663.55032046 </i>
   </energy>
  </scstep>
  <scstep>
   <time name="dav">   26.26   26.27</time>
   <time name="total">   28.85   28.86</time>
   <energy>
    <i name="e_fr_energy">   -663.57445889 </i>
    <i name="e_wo_entrp">   -663.52013738 </i>
    <i name="e_0_energy">   -663.54729813 </i>
   </energy>
  </scstep>
  <scstep>
   <time name="dav">   25.24   25.25</time>
   <time name="total">   27.86   27.87</time>
   <energy>
    <i name="e_fr_energy">   -663.57274347 </i>
    <i name="e_wo_entrp">   -663.52161487 </i>
    <i name="e_0_energy">   -663.54717917 </i>
   </energy>
  </scstep>
  <scstep>
   <time name="dav">   26.08   26.10</time>
   <time name="total">   28.72   28.74</time>
   <energy>
    <i name="e_fr_energy">   -663.57190196 </i>
    <i name="e_wo_entrp">   -663.51136206 </i>
    <i name="e_0_energy">   -663.54163201 </i>
   </energy>
  </scstep>
  <scstep>
