<?xml version="1.0" encoding="ISO-8859-1"?>
<modeling>
 <generator>
  <i name="program" type="string">vasp </i>
  <i name="version" type="string">6.4.3  </i>
  <i name="subversion" type="string">19Mar24 (build Mar 01 2025 17:53:50) complex                          parallel </i>
  <i name="platform" type="string">Shaheen </i>
  <i name="date" type="string">2025 04 21 </i>
  <i name="time" type="string">16:39:07 </i>
 </generator>
 <incar>
  <i type="int" name="ISTART">     1</i>
  <i type="string" name="PREC">Accurate   (Precision level: Normal or Accurate, set Accurate when perform structure lattice relaxation calculation)</i>
  <i type="logical" name="ADDGRID"> T  </i>
  <i type="int" name="ISPIN">     2</i>
  <i type="int" name="NELM">    90</i>
  <i type="int" name="NELMIN">     6</i>
  <i type="int" name="IBRION">     2</i>
  <i name="EDIFF">      0.00000100</i>
  <i name="EDIFFG">     -0.02000000</i>
  <i type="int" name="NSW">   300</i>
  <i type="int" name="ISIF">     2</i>
  <i name="ENCUT">    520.00000000</i>
  <v name="MAGMOM">      0.60000000      0.60000000      0.60000000      0.60000000      0.60000000      0.60000000      1.00000000      1.00000000      1.00000000      1.00000000      1.00000000      1.00000000      1.00000000      1.00000000      1.00000000      1.00000000      1.00000000      1.00000000      1.00000000      1.00000000
      1.00000000      1.00000000      1.00000000      1.00000000      1.00000000      1.00000000      1.00000000      0.60000000      0.60000000      0.60000000      0.60000000      0.60000000      0.60000000      0.60000000      0.60000000      0.60000000      0.60000000      0.60000000      0.60000000      0.60000000
      0.60000000      0.60000000      0.60000000      0.60000000      0.60000000      0.60000000      0.60000000      0.60000000      0.60000000      0.60000000      0.60000000      0.60000000      0.60000000      0.60000000      0.60000000      0.60000000      0.60000000      0.60000000      0.60000000      0.60000000
      0.60000000      0.60000000      0.60000000      0.60000000      0.60000000      0.60000000      0.60000000      0.60000000      0.60000000      0.60000000      0.60000000      0.60000000      0.60000000      0.60000000      0.60000000      0.60000000      0.60000000      0.60000000      0.60000000      0.60000000
      0.60000000      0.60000000      0.60000000      0.60000000      0.60000000      0.60000000      0.60000000      0.60000000      0.60000000      0.60000000      0.60000000      0.60000000      0.60000000      0.60000000      0.60000000      0.60000000      0.60000000      0.60000000      0.60000000</v>
  <i type="logical" name="LREAL"> F  </i>
  <i type="int" name="ISMEAR">     0</i>
  <i name="SIGMA">      0.05000000</i>
  <i type="int" name="LMAXMIX">     6</i>
  <i type="logical" name="LWAVE"> F  </i>
  <i type="logical" name="LCHARG"> F  </i>
  <i type="logical" name="LASPH"> T  </i>
  <i type="logical" name="LDAU"> T  </i>
  <i type="int" name="LDAUTYPE">     2</i>
  <v type="int" name="LDAUL">     2     3    -1</v>
  <v name="LDAUU">      2.00000000      5.00000000      0.00000000</v>
  <v name="LDAUJ">      0.00000000      0.00000000      0.00000000</v>
 </incar>
 <primitive_cell>
  <structure name="primitive_cell" >
   <crystal>
    <varray name="basis" >
     <v>      11.59820000       0.00000000       0.00000000 </v>
     <v>      -5.79910000      10.04433584       0.00000000 </v>
     <v>       0.00000000       0.00000000      21.04820000 </v>
    </varray>
    <i name="volume">   2452.03565189 </i>
    <varray name="rec_basis" >
     <v>       0.08622028       0.04977930       0.00000000 </v>
     <v>       0.00000000       0.09955860       0.00000000 </v>
     <v>       0.00000000       0.00000000       0.04751000 </v>
    </varray>
   </crystal>
   <varray name="positions" >
    <v>       0.01075685       0.98924315       0.44445876 </v>
    <v>       0.64048841       0.02013560       0.46590423 </v>
    <v>       0.97986440       0.35951159       0.46590423 </v>
    <v>       0.34465303       0.32583906       0.44438995 </v>
    <v>       0.31475375       0.68524625       0.45820126 </v>
    <v>       0.67416094       0.65534697       0.44438995 </v>
    <v>       0.22677815       0.10696414       0.30651620 </v>
    <v>       0.11111000       0.22222000       0.15999000 </v>
    <v>       0.33177317       0.00375700       0.46160895 </v>
    <v>       0.55888285       0.11045034       0.31063188 </v>
    <v>       0.44444000       0.22222000       0.15999000 </v>
    <v>       0.89038144       0.10961856       0.31345661 </v>
    <v>       0.77778000       0.22222000       0.15999000 </v>
    <v>       0.22252406       0.44109066       0.31182971 </v>
    <v>       0.11111000       0.55556000       0.15999000 </v>
    <v>       0.55909975       0.44090025       0.30711420 </v>
    <v>       0.44444000       0.55556000       0.15999000 </v>
    <v>       0.67095449       0.32904551       0.46383017 </v>
    <v>       0.88954966       0.44111715       0.31063188 </v>
    <v>       0.77778000       0.55556000       0.15999000 </v>
    <v>       0.99624300       0.66822683       0.46160895 </v>
    <v>       0.22375397       0.77624603       0.31164388 </v>
    <v>       0.11111000       0.88889000       0.15999000 </v>
    <v>       0.55890934       0.77747594       0.31182971 </v>
    <v>       0.44444000       0.88889000       0.15999000 </v>
    <v>       0.89303586       0.77322185       0.30651620 </v>
    <v>       0.77778000       0.88889000       0.15999000 </v>
    <v>       0.00000000       0.00000000       0.12250000 </v>
    <v>       0.00424728       0.99575272       0.52746612 </v>
    <v>       0.10889086       0.22359145       0.27474200 </v>
    <v>       0.19976505       0.13616401       0.43018966 </v>
    <v>       0.11111000       0.22222000       0.04751000 </v>
    <v>       0.06357430       0.27298270       0.48393269 </v>
    <v>       0.00965336       0.99034664       0.34230545 </v>
    <v>       0.22222000       0.11111000       0.19748000 </v>
    <v>       0.33333000       0.00000000       0.12250000 </v>
    <v>       0.32467668       0.99740833       0.55122544 </v>
    <v>       0.44775325       0.21755559       0.27026951 </v>
    <v>       0.55598342       0.10890583       0.42092442 </v>
    <v>       0.44444000       0.22222000       0.04751000 </v>
    <v>       0.44567364       0.24213649       0.43449758 </v>
    <v>       0.33480972       0.00000019       0.34539260 </v>
    <v>       0.55556000       0.11111000       0.19748000 </v>
    <v>       0.66667000       0.00000000       0.12250000 </v>
    <v>       0.59069501       0.05306948       0.53916133 </v>
    <v>       0.78244049       0.21755951       0.27535758 </v>
    <v>       0.92310217       0.07689783       0.42331588 </v>
    <v>       0.77778000       0.22222000       0.04751000 </v>
    <v>       0.79665556       0.20334444       0.45962312 </v>
    <v>       0.67518829       0.00202364       0.36207421 </v>
    <v>       0.88889000       0.11111000       0.19748000 </v>
    <v>       1.00000000       0.33333000       0.12250000 </v>
    <v>       0.94693052       0.40930499       0.53916133 </v>
    <v>       0.11427318       0.55012187       0.27594885 </v>
    <v>       0.25262114       0.40723551       0.42173018 </v>
    <v>       0.11111000       0.55556000       0.04751000 </v>
    <v>       0.13258895       0.53472610       0.44624007 </v>
    <v>       0.99797636       0.32481171       0.36207421 </v>
    <v>       0.22222000       0.44444000       0.19748000 </v>
    <v>       0.33333000       0.33333000       0.12250000 </v>
    <v>       0.33615417       0.32930855       0.52789182 </v>
    <v>       0.44221436       0.55778564       0.27534821 </v>
    <v>       0.51513425       0.48486575       0.42131939 </v>
    <v>       0.44444000       0.55556000       0.04751000 </v>
    <v>       0.39989603       0.60010397       0.49542575 </v>
    <v>       0.33968128       0.32272748       0.34055876 </v>
    <v>       0.55556000       0.44444000       0.19748000 </v>
    <v>       0.66667000       0.33333000       0.12250000 </v>
    <v>       0.66094226       0.33905774       0.55267455 </v>
    <v>       0.78244441       0.55224675       0.27026951 </v>
    <v>       0.89109417       0.44401658       0.42092442 </v>
    <v>       0.77778000       0.55556000       0.04751000 </v>
    <v>       0.75786351       0.55432636       0.43449758 </v>
    <v>       0.66822817       0.33177183       0.34379233 </v>
    <v>       0.88889000       0.44444000       0.19748000 </v>
    <v>       1.00000000       0.66667000       0.12250000 </v>
    <v>       0.00259167       0.67532332       0.55122544 </v>
    <v>       0.11527616       0.88472384       0.27076295 </v>
    <v>       0.22413686       0.77586314       0.42437480 </v>
    <v>       0.11111000       0.88889000       0.04751000 </v>
    <v>       0.10323807       0.89676193       0.43323213 </v>
    <v>       0.99999981       0.66519028       0.34539260 </v>
    <v>       0.22222000       0.77778000       0.19748000 </v>
    <v>       0.33333000       0.66667000       0.12250000 </v>
    <v>       0.29179899       0.70820101       0.54207457 </v>
    <v>       0.44987813       0.88572682       0.27594885 </v>
    <v>       0.59276449       0.74737886       0.42173018 </v>
    <v>       0.44444000       0.88889000       0.04751000 </v>
    <v>       0.46527390       0.86741105       0.44624007 </v>
    <v>       0.33669691       0.66330309       0.35966718 </v>
    <v>       0.55556000       0.77778000       0.19748000 </v>
    <v>       0.66667000       0.66667000       0.12250000 </v>
    <v>       0.67069145       0.66384583       0.52789182 </v>
    <v>       0.77640855       0.89110914       0.27474200 </v>
    <v>       0.86383599       0.80023495       0.43018966 </v>
    <v>       0.77778000       0.88889000       0.04751000 </v>
    <v>       0.72701730       0.93642570       0.48393269 </v>
    <v>       0.67727252       0.66031872       0.34055876 </v>
    <v>       0.88889000       0.77778000       0.19748000 </v>
   </varray>
  </structure>
  <varray name="primitive_index" >
   <v type="int" >        1 </v>
   <v type="int" >        2 </v>
   <v type="int" >        3 </v>
   <v type="int" >        4 </v>
   <v type="int" >        5 </v>
   <v type="int" >        6 </v>
   <v type="int" >        7 </v>
   <v type="int" >        8 </v>
   <v type="int" >        9 </v>
   <v type="int" >       10 </v>
   <v type="int" >       11 </v>
   <v type="int" >       12 </v>
   <v type="int" >       13 </v>
   <v type="int" >       14 </v>
   <v type="int" >       15 </v>
   <v type="int" >       16 </v>
   <v type="int" >       17 </v>
   <v type="int" >       18 </v>
   <v type="int" >       19 </v>
   <v type="int" >       20 </v>
   <v type="int" >       21 </v>
   <v type="int" >       22 </v>
   <v type="int" >       23 </v>
   <v type="int" >       24 </v>
   <v type="int" >       25 </v>
   <v type="int" >       26 </v>
   <v type="int" >       27 </v>
   <v type="int" >       28 </v>
   <v type="int" >       29 </v>
   <v type="int" >       30 </v>
   <v type="int" >       31 </v>
   <v type="int" >       32 </v>
   <v type="int" >       33 </v>
   <v type="int" >       34 </v>
   <v type="int" >       35 </v>
   <v type="int" >       36 </v>
   <v type="int" >       37 </v>
   <v type="int" >       38 </v>
   <v type="int" >       39 </v>
   <v type="int" >       40 </v>
   <v type="int" >       41 </v>
   <v type="int" >       42 </v>
   <v type="int" >       43 </v>
   <v type="int" >       44 </v>
   <v type="int" >       45 </v>
   <v type="int" >       46 </v>
   <v type="int" >       47 </v>
   <v type="int" >       48 </v>
   <v type="int" >       49 </v>
   <v type="int" >       50 </v>
   <v type="int" >       51 </v>
   <v type="int" >       52 </v>
   <v type="int" >       53 </v>
   <v type="int" >       54 </v>
   <v type="int" >       55 </v>
   <v type="int" >       56 </v>
   <v type="int" >       57 </v>
   <v type="int" >       58 </v>
   <v type="int" >       59 </v>
   <v type="int" >       60 </v>
   <v type="int" >       61 </v>
   <v type="int" >       62 </v>
   <v type="int" >       63 </v>
   <v type="int" >       64 </v>
   <v type="int" >       65 </v>
   <v type="int" >       66 </v>
   <v type="int" >       67 </v>
   <v type="int" >       68 </v>
   <v type="int" >       69 </v>
   <v type="int" >       70 </v>
   <v type="int" >       71 </v>
   <v type="int" >       72 </v>
   <v type="int" >       73 </v>
   <v type="int" >       74 </v>
   <v type="int" >       75 </v>
   <v type="int" >       76 </v>
   <v type="int" >       77 </v>
   <v type="int" >       78 </v>
   <v type="int" >       79 </v>
   <v type="int" >       80 </v>
   <v type="int" >       81 </v>
   <v type="int" >       82 </v>
   <v type="int" >       83 </v>
   <v type="int" >       84 </v>
   <v type="int" >       85 </v>
   <v type="int" >       86 </v>
   <v type="int" >       87 </v>
   <v type="int" >       88 </v>
   <v type="int" >       89 </v>
   <v type="int" >       90 </v>
   <v type="int" >       91 </v>
   <v type="int" >       92 </v>
   <v type="int" >       93 </v>
   <v type="int" >       94 </v>
   <v type="int" >       95 </v>
   <v type="int" >       96 </v>
   <v type="int" >       97 </v>
   <v type="int" >       98 </v>
   <v type="int" >       99 </v>
  </varray>
 </primitive_cell>
 <kpoints>
  <generation param="Monkhorst-Pack">
   <v type="int" name="divisions">       3        3        1 </v>
   <v name="usershift">      0.00000000       0.00000000       0.00000000 </v>
   <v name="genvec1">      0.33333333      -0.00000000       0.00000000 </v>
   <v name="genvec2">      0.00000000       0.33333333       0.00000000 </v>
   <v name="genvec3">      0.00000000       0.00000000       1.00000000 </v>
   <v name="shift">      0.00000000       0.00000000       0.00000000 </v>
  </generation>
  <varray name="kpointlist" >
   <v>       0.00000000       0.00000000       0.00000000 </v>
   <v>       0.33333333      -0.00000000       0.00000000 </v>
   <v>      -0.33333333       0.33333333       0.00000000 </v>
   <v>       0.33333333       0.33333333       0.00000000 </v>
  </varray>
  <varray name="weights" >
   <v>       0.11111111 </v>
   <v>       0.44444444 </v>
   <v>       0.22222222 </v>
   <v>       0.22222222 </v>
  </varray>
 </kpoints>
 <parameters>
  <separator name="general" >
   <i type="string" name="SYSTEM">unknown system</i>
   <i type="logical" name="LCOMPAT"> F  </i>
  </separator>
  <separator name="electronic" >
   <i type="string" name="PREC">accura</i>
   <i name="ENMAX">    520.00000000</i>
   <i name="ENAUG">    605.39200000</i>
   <i name="EDIFF">      0.00000100</i>
   <i type="int" name="IALGO">    38</i>
   <i type="int" name="IWAVPR">    11</i>
   <i type="int" name="NBANDS">   480</i>
   <i type="int" name="NBANDSLOW">    -1</i>
   <i type="int" name="NBANDSHIGH">    -1</i>
   <i name="NELECT">    738.00000000</i>
   <i type="int" name="TURBO">     0</i>
   <i type="int" name="IRESTART">     0</i>
   <i type="int" name="NREBOOT">     0</i>
   <i type="int" name="NMIN">     0</i>
   <i name="EREF">      0.00000000</i>
   <separator name="electronic smearing" >
    <i type="int" name="ISMEAR">     0</i>
    <i name="SIGMA">      0.05000000</i>
    <i name="KSPACING">      0.50000000</i>
    <i type="logical" name="KGAMMA"> T  </i>
    <i type="logical" name="KBLOWUP"> T  </i>
   </separator>
   <separator name="electronic projectors" >
    <i type="logical" name="LREAL"> F  </i>
    <v name="ROPT">      0.00000000      0.00000000      0.00000000</v>
    <i type="int" name="LMAXPAW">  -100</i>
    <i type="int" name="LMAXMIX">     6</i>
    <i type="logical" name="NLSPLINE"> F  </i>
   </separator>
   <separator name="electronic startup" >
    <i type="int" name="ISTART">     0</i>
    <i type="int" name="ICHARG">     2</i>
    <i type="int" name="INIWAV">     1</i>
   </separator>
   <separator name="electronic spin" >
    <i type="int" name="ISPIN">     2</i>
    <i type="logical" name="LNONCOLLINEAR"> F  </i>
    <v name="MAGMOM">      0.60000000      0.60000000      0.60000000      0.60000000      0.60000000      0.60000000      1.00000000      1.00000000      1.00000000      1.00000000      1.00000000      1.00000000      1.00000000      1.00000000      1.00000000      1.00000000      1.00000000      1.00000000      1.00000000      1.00000000
      1.00000000      1.00000000      1.00000000      1.00000000      1.00000000      1.00000000      1.00000000      0.60000000      0.60000000      0.60000000      0.60000000      0.60000000      0.60000000      0.60000000      0.60000000      0.60000000      0.60000000      0.60000000      0.60000000      0.60000000
      0.60000000      0.60000000      0.60000000      0.60000000      0.60000000      0.60000000      0.60000000      0.60000000      0.60000000      0.60000000      0.60000000      0.60000000      0.60000000      0.60000000      0.60000000      0.60000000      0.60000000      0.60000000      0.60000000      0.60000000
      0.60000000      0.60000000      0.60000000      0.60000000      0.60000000      0.60000000      0.60000000      0.60000000      0.60000000      0.60000000      0.60000000      0.60000000      0.60000000      0.60000000      0.60000000      0.60000000      0.60000000      0.60000000      0.60000000      0.60000000
      0.60000000      0.60000000      0.60000000      0.60000000      0.60000000      0.60000000      0.60000000      0.60000000      0.60000000      0.60000000      0.60000000      0.60000000      0.60000000      0.60000000      0.60000000      0.60000000      0.60000000      0.60000000      0.60000000</v>
    <i name="NUPDOWN">     -1.00000000</i>
    <i type="logical" name="LSORBIT"> F  </i>
    <v name="SAXIS">      0.00000000      0.00000000      1.00000000</v>
    <i type="logical" name="LSPIRAL"> F  </i>
    <v name="QSPIRAL">      0.00000000      0.00000000      0.00000000</v>
    <i type="logical" name="LZEROZ"> F  </i>
   </separator>
   <separator name="electronic exchange-correlation" >
    <i type="logical" name="LASPH"> T  </i>
   </separator>
   <separator name="electronic convergence" >
    <i type="int" name="NELM">    90</i>
    <i type="int" name="NELMDL">     0</i>
    <i type="int" name="NELMIN">     6</i>
    <i name="ENINI">    520.00000000</i>
    <separator name="electronic convergence detail" >
     <i type="logical" name="LDIAG"> T  </i>
     <i type="logical" name="LSUBROT"> F  </i>
     <i name="WEIMIN">      0.00100000</i>
     <i name="EBREAK">      0.00000000</i>
     <i name="DEPER">      0.30000000</i>
     <i type="int" name="NRMM">     4</i>
     <i name="TIME">      0.40000000</i>
    </separator>
   </separator>
   <separator name="electronic mixer" >
    <i name="AMIX">      0.40000000</i>
    <i name="BMIX">      1.00000000</i>
    <i name="AMIN">      0.10000000</i>
    <i name="AMIX_MAG">      1.60000000</i>
    <i name="BMIX_MAG">      1.00000000</i>
    <separator name="electronic mixer details" >
     <i type="int" name="IMIX">     4</i>
     <i type="logical" name="MIXFIRST"> F  </i>
     <i type="int" name="MAXMIX">   -45</i>
     <i name="WC">    100.00000000</i>
     <i type="int" name="INIMIX">     1</i>
     <i type="int" name="MIXPRE">     1</i>
     <i type="int" name="MREMOVE">     5</i>
    </separator>
   </separator>
   <separator name="electronic dipolcorrection" >
    <i type="logical" name="LDIPOL"> F  </i>
    <i type="logical" name="LMONO"> F  </i>
    <i type="int" name="IDIPOL">     0</i>
    <i name="EPSILON">      1.00000000</i>
    <v name="DIPOL">   -100.00000000   -100.00000000   -100.00000000</v>
    <i name="EFIELD">      0.00000000</i>
    <i type="logical" name="LVACPOTAV"> F  </i>
   </separator>
  </separator>
  <separator name="grids" >
   <i type="int" name="NGX">    90</i>
   <i type="int" name="NGY">    90</i>
   <i type="int" name="NGZ">   160</i>
   <i type="int" name="NGXF">   180</i>
   <i type="int" name="NGYF">   180</i>
   <i type="int" name="NGZF">   320</i>
   <i type="logical" name="ADDGRID"> T  </i>
  </separator>
  <separator name="ionic" >
   <i type="int" name="NSW">   300</i>
   <i type="int" name="IBRION">     2</i>
   <i type="int" name="MDALGO">     0</i>
   <i type="int" name="ISIF">     2</i>
   <i name="PSTRESS">      0.00000000</i>
   <i name="EDIFFG">     -0.02000000</i>
   <i type="int" name="NFREE">     1</i>
   <i name="POTIM">      0.50000000</i>
   <i name="SMASS">     -3.00000000</i>
   <i name="SCALEE">      1.00000000</i>
  </separator>
  <separator name="ionic md" >
   <i name="TEBEG">      0.00010000</i>
   <i name="TEEND">      0.00010000</i>
   <i type="int" name="NBLOCK">     1</i>
   <i type="int" name="KBLOCK">   300</i>
   <i type="int" name="NPACO">   256</i>
   <i name="APACO">     10.00000000</i>
  </separator>
  <separator name="symmetry" >
   <i type="int" name="ISYM">     2</i>
   <i name="SYMPREC">      0.00001000</i>
  </separator>
  <separator name="dos" >
   <i type="int" name="LORBIT">     0</i>
   <v name="RWIGS">     -1.00000000     -1.00000000     -1.00000000</v>
   <i type="int" name="NEDOS">   301</i>
   <i name="EMIN">     10.00000000</i>
   <i name="EMAX">    -10.00000000</i>
   <i name="EFERMI">      0.00000000</i>
  </separator>
  <separator name="writing" >
   <i type="int" name="NWRITE">     2</i>
   <i type="logical" name="LWAVE"> F  </i>
   <i type="logical" name="LDOWNSAMPLE"> F  </i>
   <i type="logical" name="LCHARG"> F  </i>
   <i type="logical" name="LPARD"> F  </i>
   <i type="logical" name="LVTOT"> F  </i>
   <i type="logical" name="LVHAR"> F  </i>
   <i type="logical" name="LELF"> F  </i>
   <i type="logical" name="LOPTICS"> F  </i>
   <v name="STM">      0.00000000      0.00000000      0.00000000      0.00000000      0.00000000      0.00000000      0.00000000</v>
  </separator>
  <separator name="performance" >
   <i type="int" name="NPAR">    48</i>
   <i type="int" name="NSIM">     4</i>
   <i type="int" name="NBLK">    -1</i>
   <i type="logical" name="LPLANE"> T  </i>
   <i type="logical" name="LSCALAPACK"> T  </i>
   <i type="logical" name="LSCAAWARE"> T  </i>
   <i type="logical" name="LSCALU"> F  </i>
   <i type="logical" name="LASYNC"> F  </i>
   <i type="logical" name="LORBITALREAL"> F  </i>
  </separator>
  <separator name="miscellaneous" >
   <i type="int" name="IDIOT">     3</i>
   <i type="int" name="PHON_NSTRUCT">    -1</i>
   <i type="logical" name="LMUSIC"> F  </i>
   <v name="POMASS">    192.22000000    140.11500000     16.00000000</v>
   <v name="DARWINR">      0.00000000      0.00000000      0.00000000</v>
   <v name="DARWINV">      1.00000000      1.00000000      1.00000000</v>
   <i type="logical" name="LCORR"> T  </i>
  </separator>
  <i type="logical" name="GGA_COMPAT"> T  </i>
  <i type="logical" name="LBERRY"> F  </i>
  <i type="int" name="ICORELEVEL">     0</i>
  <i type="logical" name="LDAU"> T  </i>
  <v type="int" name="LDAUTYPE">     2</v>
  <v type="int" name="LDAUL">     2</v>
  <v name="LDAUU">      2.00000000</v>
  <v name="LDAUJ">      0.00000000</v>
  <i type="int" name="LDAUPRINT">     0</i>
  <i type="int" name="I_CONSTRAINED_M">     0</i>
  <separator name="electronic exchange-correlation" >
   <i type="string" name="GGA    ">PE</i>
   <i type="string" name="XC_C">1</i>
   <i type="int" name="VOSKOWN">     0</i>
   <i type="logical" name="LHFCALC"> F  </i>
   <i type="string" name="PRECFOCK"></i>
   <i type="logical" name="LSYMGRAD"> F  </i>
   <i type="logical" name="LHFONE"> F  </i>
   <i type="logical" name="LRHFCALC"> F  </i>
   <i type="logical" name="LTHOMAS"> F  </i>
   <i type="logical" name="LMODELHF"> F  </i>
   <i type="logical" name="LFOCKACE"> F  </i>
   <i name="ENCUT4O">     -1.00000000</i>
   <i type="int" name="EXXOEP">     0</i>
   <i type="int" name="FOURORBIT">     0</i>
   <i name="AEXX">      0.00000000</i>
   <i name="HFALPHA">      0.00000000</i>
   <i name="MCALPHA">      0.00000000</i>
   <i name="ALDAX">      1.00000000</i>
   <i name="AGGAX">      1.00000000</i>
   <i name="AMGGAX">      1.00000000</i>
   <i name="ALDAC">      1.00000000</i>
   <i name="AGGAC">      1.00000000</i>
   <i name="AMGGAC">      1.00000000</i>
   <i type="int" name="NKREDX">     1</i>
   <i type="int" name="NKREDY">     1</i>
   <i type="int" name="NKREDZ">     1</i>
   <i type="logical" name="SHIFTRED"> F  </i>
   <i type="logical" name="ODDONLY"> F  </i>
   <i type="logical" name="EVENONLY"> F  </i>
   <i type="int" name="LMAXFOCK">     0</i>
   <i type="int" name="NMAXFOCKAE">     0</i>
   <i type="logical" name="LFOCKAEDFT"> F  </i>
   <i name="HFSCREEN">      0.00000000</i>
   <i name="HFSCREENC">      0.00000000</i>
   <i type="int" name="NBANDSGWLOW">     0</i>
  </separator>
  <separator name="vdW DFT" >
   <i type="logical" name="LUSE_VDW"> F  </i>
   <i type="int" name="IVDW_NL">    -1</i>
   <i type="logical" name="LSPIN_VDW"> F  </i>
   <i name="ZAB_VDW">     -0.84910000</i>
   <i name="GAMMA_VDW">      1.39626340</i>
   <i name="ALPHA_VDW">      0.00000000</i>
   <i name="PARAM1">      0.12340000</i>
   <i name="PARAM2">      1.00000000</i>
   <i name="BPARAM">      6.30000000</i>
   <i name="CPARAM">      0.00930000</i>
  </separator>
  <separator name="model GW" >
   <i type="int" name="MODEL_GW">     0</i>
   <i name="MODEL_EPS0">     14.86082213</i>
   <i name="MODEL_ALPHA">      1.00000000</i>
  </separator>
  <separator name="linear response parameters" >
   <i type="logical" name="LEPSILON"> F  </i>
   <i type="logical" name="LRPA"> F  </i>
   <i type="logical" name="LNABLA"> F  </i>
   <i type="logical" name="LVEL"> F  </i>
   <i name="CSHIFT">      0.10000000</i>
   <i name="OMEGAMAX">     -1.00000000</i>
   <i name="DEG_THRESHOLD">      0.00200000</i>
   <i name="RTIME">     -0.10000000</i>
   <i name="WPLASMAI">      0.00000000</i>
   <v name="DFIELD">      0.00000000      0.00000000      0.00000000</v>
   <v name="WPLASMA">      0.00000000      0.00000000      0.00000000      0.00000000      0.00000000      0.00000000      0.00000000      0.00000000      0.00000000</v>
  </separator>
  <separator name="orbital magnetization" >
   <i type="logical" name="NUCIND"> F  </i>
   <v name="MAGPOS">      0.00000000      0.00000000      0.00000000</v>
   <i type="logical" name="LNICSALL"> T  </i>
   <i type="logical" name="ORBITALMAG"> F  </i>
   <i type="logical" name="LMAGBLOCH"> F  </i>
   <i type="logical" name="LCHIMAG"> F  </i>
   <i type="logical" name="LGAUGE"> T  </i>
   <i type="int" name="MAGATOM">     0</i>
   <v name="MAGDIPOL">      0.00000000      0.00000000      0.00000000</v>
   <v name="AVECCONST">      0.00000000      0.00000000      0.00000000</v>
  </separator>
  <separator name="response functions" >
   <i type="logical" name="LALL_IN_ONE"> F  </i>
   <i type="int" name="IALL_IN_ONE">    -1</i>
   <i type="int" name="NBANDS_WAVE">    -1</i>
   <i type="logical" name="LFINITE_TEMPERATURE"> F  </i>
   <i type="logical" name="LADDER"> F  </i>
   <i type="logical" name="LRPAFORCE"> F  </i>
   <i type="logical" name="LFXC"> F  </i>
   <i type="logical" name="LHARTREE"> T  </i>
   <i type="int" name="IBSE">     0</i>
   <v type="int" name="KPOINT">    -1     0     0     0</v>
   <i type="logical" name="LTCTC"> F  </i>
   <i type="logical" name="LTCTE"> F  </i>
   <i type="logical" name="LTETE"> F  </i>
   <i type="logical" name="LTRIPLET"> F  </i>
   <i type="logical" name="LFXCEPS"> F  </i>
   <i type="logical" name="LFXHEG"> F  </i>
   <i type="int" name="NATURALO">     2</i>
   <i type="logical" name="LHOLEGF"> F  </i>
   <i type="logical" name="L2ORDER"> F  </i>
   <i type="logical" name="LDMP1"> F  </i>
   <i type="logical" name="LMP2LT"> F  </i>
   <i type="logical" name="LSMP2LT"> F  </i>
   <i type="logical" name="LGWLF"> F  </i>
   <i name="ENCUTGW">     -1.60000002</i>
   <i name="ENCUTGWSOFT">     -1.60000002</i>
   <i name="ENCUTLF">     -1.00000000</i>
   <i type="logical" name="ESF_SPLINES"> F  </i>
   <i name="ESF_CONV">      0.01000000</i>
   <i type="int" name="ESF_NINTER">    15</i>
   <i type="int" name="LMAXMP2">    -1</i>
   <i name="SCISSOR">      0.00000000</i>
   <i type="int" name="NOMEGA">     0</i>
   <i type="int" name="NOMEGAR">     0</i>
   <i type="int" name="NBANDSGW">    -1</i>
   <i type="int" name="NBANDSO">    -1</i>
   <i type="int" name="NBANDSV">    -1</i>
   <i type="int" name="NELMGW">     1</i>
   <i type="int" name="NELMHF">     1</i>
   <i type="int" name="DIM">     3</i>
   <i type="int" name="IESPILON">     4</i>
   <i type="int" name="ANTIRES">     0</i>
   <i name="OMEGAMAX">    -30.00000000</i>
   <i name="OMEGAMIN">    -30.00000000</i>
   <i name="OMEGATL">   -200.00000000</i>
   <i type="int" name="OMEGAGRID">     0</i>
   <i name="CSHIFT">     -0.10000000</i>
   <i type="logical" name="LSELFENERGY"> F  </i>
   <i type="logical" name="LSPECTRAL"> F  </i>
   <i type="logical" name="LSPECTRALGW"> F  </i>
   <i type="logical" name="LSINGLES"> F  </i>
   <i type="logical" name="LFERMIGW"> F  </i>
   <i type="logical" name="ODDONLYGW"> F  </i>
   <i type="logical" name="EVENONLYGW"> F  </i>
   <i type="int" name="NKREDLFX">     1</i>
   <i type="int" name="NKREDLFY">     1</i>
   <i type="int" name="NKREDLFZ">     1</i>
   <i type="int" name="MAXMEM">  2800</i>
   <i type="int" name="TELESCOPE">     0</i>
   <i type="int" name="NTAUPAR">    -1</i>
   <i type="int" name="NOMEGAPAR">    -1</i>
   <i name="DAMP_NEWTON">      0.80000001</i>
   <i name="LAMBDA">      1.00000000</i>
  </separator>
  <separator name="External order field" >
   <i name="OFIELD_KAPPA">      0.00000000</i>
   <v name="OFIELD_K">      0.00000000      0.00000000      0.00000000</v>
   <i name="OFIELD_Q6_NEAR">      0.00000000</i>
   <i name="OFIELD_Q6_FAR">      0.00000000</i>
   <i name="OFIELD_A">      0.00000000</i>
  </separator>
  <separator name="optional k-points parameters" >
   <i type="int" name="KPOINTS_OPT_MODE">     1</i>
   <i type="logical" name="LKPOINTS_OPT"> F  </i>
  </separator>
 </parameters>
 <atominfo>
  <atoms>      99 </atoms>
  <types>       3 </types>
  <array name="atoms" >
   <dimension dim="1">ion</dimension>
   <field type="string">element</field>
   <field type="int">atomtype</field>
   <set>
    <rc><c>Ir</c><c>   1</c></rc>
    <rc><c>Ir</c><c>   1</c></rc>
    <rc><c>Ir</c><c>   1</c></rc>
    <rc><c>Ir</c><c>   1</c></rc>
    <rc><c>Ir</c><c>   1</c></rc>
    <rc><c>Ir</c><c>   1</c></rc>
    <rc><c>Ce</c><c>   2</c></rc>
    <rc><c>Ce</c><c>   2</c></rc>
    <rc><c>Ce</c><c>   2</c></rc>
    <rc><c>Ce</c><c>   2</c></rc>
    <rc><c>Ce</c><c>   2</c></rc>
    <rc><c>Ce</c><c>   2</c></rc>
    <rc><c>Ce</c><c>   2</c></rc>
    <rc><c>Ce</c><c>   2</c></rc>
    <rc><c>Ce</c><c>   2</c></rc>
    <rc><c>Ce</c><c>   2</c></rc>
    <rc><c>Ce</c><c>   2</c></rc>
    <rc><c>Ce</c><c>   2</c></rc>
    <rc><c>Ce</c><c>   2</c></rc>
    <rc><c>Ce</c><c>   2</c></rc>
    <rc><c>Ce</c><c>   2</c></rc>
    <rc><c>Ce</c><c>   2</c></rc>
    <rc><c>Ce</c><c>   2</c></rc>
    <rc><c>Ce</c><c>   2</c></rc>
    <rc><c>Ce</c><c>   2</c></rc>
    <rc><c>Ce</c><c>   2</c></rc>
    <rc><c>Ce</c><c>   2</c></rc>
    <rc><c>O </c><c>   3</c></rc>
    <rc><c>O </c><c>   3</c></rc>
    <rc><c>O </c><c>   3</c></rc>
    <rc><c>O </c><c>   3</c></rc>
    <rc><c>O </c><c>   3</c></rc>
    <rc><c>O </c><c>   3</c></rc>
    <rc><c>O </c><c>   3</c></rc>
    <rc><c>O </c><c>   3</c></rc>
    <rc><c>O </c><c>   3</c></rc>
    <rc><c>O </c><c>   3</c></rc>
    <rc><c>O </c><c>   3</c></rc>
    <rc><c>O </c><c>   3</c></rc>
    <rc><c>O </c><c>   3</c></rc>
    <rc><c>O </c><c>   3</c></rc>
    <rc><c>O </c><c>   3</c></rc>
    <rc><c>O </c><c>   3</c></rc>
    <rc><c>O </c><c>   3</c></rc>
    <rc><c>O </c><c>   3</c></rc>
    <rc><c>O </c><c>   3</c></rc>
    <rc><c>O </c><c>   3</c></rc>
    <rc><c>O </c><c>   3</c></rc>
    <rc><c>O </c><c>   3</c></rc>
    <rc><c>O </c><c>   3</c></rc>
    <rc><c>O </c><c>   3</c></rc>
    <rc><c>O </c><c>   3</c></rc>
    <rc><c>O </c><c>   3</c></rc>
    <rc><c>O </c><c>   3</c></rc>
    <rc><c>O </c><c>   3</c></rc>
    <rc><c>O </c><c>   3</c></rc>
    <rc><c>O </c><c>   3</c></rc>
    <rc><c>O </c><c>   3</c></rc>
    <rc><c>O </c><c>   3</c></rc>
    <rc><c>O </c><c>   3</c></rc>
    <rc><c>O </c><c>   3</c></rc>
    <rc><c>O </c><c>   3</c></rc>
    <rc><c>O </c><c>   3</c></rc>
    <rc><c>O </c><c>   3</c></rc>
    <rc><c>O </c><c>   3</c></rc>
    <rc><c>O </c><c>   3</c></rc>
    <rc><c>O </c><c>   3</c></rc>
    <rc><c>O </c><c>   3</c></rc>
    <rc><c>O </c><c>   3</c></rc>
    <rc><c>O </c><c>   3</c></rc>
    <rc><c>O </c><c>   3</c></rc>
    <rc><c>O </c><c>   3</c></rc>
    <rc><c>O </c><c>   3</c></rc>
    <rc><c>O </c><c>   3</c></rc>
    <rc><c>O </c><c>   3</c></rc>
    <rc><c>O </c><c>   3</c></rc>
    <rc><c>O </c><c>   3</c></rc>
    <rc><c>O </c><c>   3</c></rc>
    <rc><c>O </c><c>   3</c></rc>
    <rc><c>O </c><c>   3</c></rc>
    <rc><c>O </c><c>   3</c></rc>
    <rc><c>O </c><c>   3</c></rc>
    <rc><c>O </c><c>   3</c></rc>
    <rc><c>O </c><c>   3</c></rc>
    <rc><c>O </c><c>   3</c></rc>
    <rc><c>O </c><c>   3</c></rc>
    <rc><c>O </c><c>   3</c></rc>
    <rc><c>O </c><c>   3</c></rc>
    <rc><c>O </c><c>   3</c></rc>
    <rc><c>O </c><c>   3</c></rc>
    <rc><c>O </c><c>   3</c></rc>
    <rc><c>O </c><c>   3</c></rc>
    <rc><c>O </c><c>   3</c></rc>
    <rc><c>O </c><c>   3</c></rc>
    <rc><c>O </c><c>   3</c></rc>
    <rc><c>O </c><c>   3</c></rc>
    <rc><c>O </c><c>   3</c></rc>
    <rc><c>O </c><c>   3</c></rc>
    <rc><c>O </c><c>   3</c></rc>
   </set>
  </array>
  <array name="atomtypes" >
   <dimension dim="1">type</dimension>
   <field type="int">atomspertype</field>
   <field type="string">element</field>
   <field>mass</field>
   <field>valence</field>
   <field type="string">pseudopotential</field>
   <set>
    <rc><c>   6</c><c>Ir</c><c>    192.22000000</c><c>      9.00000000</c><c>  PAW_PBE Ir 06Sep2000                  </c></rc>
    <rc><c>  21</c><c>Ce</c><c>    140.11500000</c><c>     12.00000000</c><c>  PAW_PBE Ce 23Dec2003                  </c></rc>
    <rc><c>  72</c><c>O </c><c>     16.00000000</c><c>      6.00000000</c><c>  PAW_PBE O 08Apr2002                   </c></rc>
   </set>
  </array>
 </atominfo>
 <structure name="initialpos" >
  <crystal>
   <varray name="basis" >
    <v>      11.59820000       0.00000000       0.00000000 </v>
    <v>      -5.79910000      10.04433584       0.00000000 </v>
    <v>       0.00000000       0.00000000      21.04820000 </v>
   </varray>
   <i name="volume">   2452.03565189 </i>
   <varray name="rec_basis" >
    <v>       0.08622028       0.04977930       0.00000000 </v>
    <v>       0.00000000       0.09955860       0.00000000 </v>
    <v>       0.00000000       0.00000000       0.04751000 </v>
   </varray>
  </crystal>
  <varray name="positions" >
   <v>       0.01075685       0.98924315       0.44445876 </v>
   <v>       0.64048841       0.02013560       0.46590423 </v>
   <v>       0.97986440       0.35951159       0.46590423 </v>
   <v>       0.34465303       0.32583906       0.44438995 </v>
   <v>       0.31475375       0.68524625       0.45820126 </v>
   <v>       0.67416094       0.65534697       0.44438995 </v>
   <v>       0.22677815       0.10696414       0.30651620 </v>
   <v>       0.11111000       0.22222000       0.15999000 </v>
   <v>       0.33177317       0.00375700       0.46160895 </v>
   <v>       0.55888285       0.11045034       0.31063188 </v>
   <v>       0.44444000       0.22222000       0.15999000 </v>
   <v>       0.89038144       0.10961856       0.31345661 </v>
   <v>       0.77778000       0.22222000       0.15999000 </v>
   <v>       0.22252406       0.44109066       0.31182971 </v>
   <v>       0.11111000       0.55556000       0.15999000 </v>
   <v>       0.55909975       0.44090025       0.30711420 </v>
   <v>       0.44444000       0.55556000       0.15999000 </v>
   <v>       0.67095449       0.32904551       0.46383017 </v>
   <v>       0.88954966       0.44111715       0.31063188 </v>
   <v>       0.77778000       0.55556000       0.15999000 </v>
   <v>       0.99624300       0.66822683       0.46160895 </v>
   <v>       0.22375397       0.77624603       0.31164388 </v>
   <v>       0.11111000       0.88889000       0.15999000 </v>
   <v>       0.55890934       0.77747594       0.31182971 </v>
   <v>       0.44444000       0.88889000       0.15999000 </v>
   <v>       0.89303586       0.77322185       0.30651620 </v>
   <v>       0.77778000       0.88889000       0.15999000 </v>
   <v>       0.00000000       0.00000000       0.12250000 </v>
   <v>       0.00424728       0.99575272       0.52746612 </v>
   <v>       0.10889086       0.22359145       0.27474200 </v>
   <v>       0.19976505       0.13616401       0.43018966 </v>
   <v>       0.11111000       0.22222000       0.04751000 </v>
   <v>       0.06357430       0.27298270       0.48393269 </v>
   <v>       0.00965336       0.99034664       0.34230545 </v>
   <v>       0.22222000       0.11111000       0.19748000 </v>
   <v>       0.33333000       0.00000000       0.12250000 </v>
   <v>       0.32467668       0.99740833       0.55122544 </v>
   <v>       0.44775325       0.21755559       0.27026951 </v>
   <v>       0.55598342       0.10890583       0.42092442 </v>
   <v>       0.44444000       0.22222000       0.04751000 </v>
   <v>       0.44567364       0.24213649       0.43449758 </v>
   <v>       0.33480972       0.00000019       0.34539260 </v>
   <v>       0.55556000       0.11111000       0.19748000 </v>
   <v>       0.66667000       0.00000000       0.12250000 </v>
   <v>       0.59069501       0.05306948       0.53916133 </v>
   <v>       0.78244049       0.21755951       0.27535758 </v>
   <v>       0.92310217       0.07689783       0.42331588 </v>
   <v>       0.77778000       0.22222000       0.04751000 </v>
   <v>       0.79665556       0.20334444       0.45962312 </v>
   <v>       0.67518829       0.00202364       0.36207421 </v>
   <v>       0.88889000       0.11111000       0.19748000 </v>
   <v>       0.00000000       0.33333000       0.12250000 </v>
   <v>       0.94693052       0.40930499       0.53916133 </v>
   <v>       0.11427318       0.55012187       0.27594885 </v>
   <v>       0.25262114       0.40723551       0.42173018 </v>
   <v>       0.11111000       0.55556000       0.04751000 </v>
   <v>       0.13258895       0.53472610       0.44624007 </v>
   <v>       0.99797636       0.32481171       0.36207421 </v>
   <v>       0.22222000       0.44444000       0.19748000 </v>
   <v>       0.33333000       0.33333000       0.12250000 </v>
   <v>       0.33615417       0.32930855       0.52789182 </v>
   <v>       0.44221436       0.55778564       0.27534821 </v>
   <v>       0.51513425       0.48486575       0.42131939 </v>
   <v>       0.44444000       0.55556000       0.04751000 </v>
   <v>       0.39989603       0.60010397       0.49542575 </v>
   <v>       0.33968128       0.32272748       0.34055876 </v>
   <v>       0.55556000       0.44444000       0.19748000 </v>
   <v>       0.66667000       0.33333000       0.12250000 </v>
   <v>       0.66094226       0.33905774       0.55267455 </v>
   <v>       0.78244441       0.55224675       0.27026951 </v>
   <v>       0.89109417       0.44401658       0.42092442 </v>
   <v>       0.77778000       0.55556000       0.04751000 </v>
   <v>       0.75786351       0.55432636       0.43449758 </v>
   <v>       0.66822817       0.33177183       0.34379233 </v>
   <v>       0.88889000       0.44444000       0.19748000 </v>
   <v>       0.00000000       0.66667000       0.12250000 </v>
   <v>       0.00259167       0.67532332       0.55122544 </v>
   <v>       0.11527616       0.88472384       0.27076295 </v>
   <v>       0.22413686       0.77586314       0.42437480 </v>
   <v>       0.11111000       0.88889000       0.04751000 </v>
   <v>       0.10323807       0.89676193       0.43323213 </v>
   <v>       0.99999981       0.66519028       0.34539260 </v>
   <v>       0.22222000       0.77778000       0.19748000 </v>
   <v>       0.33333000       0.66667000       0.12250000 </v>
   <v>       0.29179899       0.70820101       0.54207457 </v>
   <v>       0.44987813       0.88572682       0.27594885 </v>
   <v>       0.59276449       0.74737886       0.42173018 </v>
   <v>       0.44444000       0.88889000       0.04751000 </v>
   <v>       0.46527390       0.86741105       0.44624007 </v>
   <v>       0.33669691       0.66330309       0.35966718 </v>
   <v>       0.55556000       0.77778000       0.19748000 </v>
   <v>       0.66667000       0.66667000       0.12250000 </v>
   <v>       0.67069145       0.66384583       0.52789182 </v>
   <v>       0.77640855       0.89110914       0.27474200 </v>
   <v>       0.86383599       0.80023495       0.43018966 </v>
   <v>       0.77778000       0.88889000       0.04751000 </v>
   <v>       0.72701730       0.93642570       0.48393269 </v>
   <v>       0.67727252       0.66031872       0.34055876 </v>
   <v>       0.88889000       0.77778000       0.19748000 </v>
  </varray>
  <varray name="selective"  type="logical" >
   <v type="logical" >  T  T  T </v>
   <v type="logical" >  T  T  T </v>
   <v type="logical" >  T  T  T </v>
   <v type="logical" >  T  T  T </v>
   <v type="logical" >  T  T  T </v>
   <v type="logical" >  T  T  T </v>
   <v type="logical" >  T  T  T </v>
   <v type="logical" >  F  F  F </v>
   <v type="logical" >  T  T  T </v>
   <v type="logical" >  T  T  T </v>
   <v type="logical" >  F  F  F </v>
   <v type="logical" >  T  T  T </v>
   <v type="logical" >  F  F  F </v>
   <v type="logical" >  T  T  T </v>
   <v type="logical" >  F  F  F </v>
   <v type="logical" >  T  T  T </v>
   <v type="logical" >  F  F  F </v>
   <v type="logical" >  T  T  T </v>
   <v type="logical" >  T  T  T </v>
   <v type="logical" >  F  F  F </v>
   <v type="logical" >  T  T  T </v>
   <v type="logical" >  T  T  T </v>
   <v type="logical" >  F  F  F </v>
   <v type="logical" >  T  T  T </v>
   <v type="logical" >  F  F  F </v>
   <v type="logical" >  T  T  T </v>
   <v type="logical" >  F  F  F </v>
   <v type="logical" >  F  F  F </v>
   <v type="logical" >  T  T  T </v>
   <v type="logical" >  T  T  T </v>
   <v type="logical" >  T  T  T </v>
   <v type="logical" >  F  F  F </v>
   <v type="logical" >  T  T  T </v>
   <v type="logical" >  T  T  T </v>
   <v type="logical" >  F  F  F </v>
   <v type="logical" >  F  F  F </v>
   <v type="logical" >  T  T  T </v>
   <v type="logical" >  T  T  T </v>
   <v type="logical" >  T  T  T </v>
   <v type="logical" >  F  F  F </v>
   <v type="logical" >  T  T  T </v>
   <v type="logical" >  T  T  T </v>
   <v type="logical" >  F  F  F </v>
   <v type="logical" >  F  F  F </v>
   <v type="logical" >  T  T  T </v>
   <v type="logical" >  T  T  T </v>
   <v type="logical" >  T  T  T </v>
   <v type="logical" >  F  F  F </v>
   <v type="logical" >  T  T  T </v>
   <v type="logical" >  T  T  T </v>
   <v type="logical" >  F  F  F </v>
   <v type="logical" >  F  F  F </v>
   <v type="logical" >  T  T  T </v>
   <v type="logical" >  T  T  T </v>
   <v type="logical" >  T  T  T </v>
   <v type="logical" >  F  F  F </v>
   <v type="logical" >  T  T  T </v>
   <v type="logical" >  T  T  T </v>
   <v type="logical" >  F  F  F </v>
   <v type="logical" >  F  F  F </v>
   <v type="logical" >  T  T  T </v>
   <v type="logical" >  T  T  T </v>
   <v type="logical" >  T  T  T </v>
   <v type="logical" >  F  F  F </v>
   <v type="logical" >  T  T  T </v>
   <v type="logical" >  T  T  T </v>
   <v type="logical" >  F  F  F </v>
   <v type="logical" >  F  F  F </v>
   <v type="logical" >  T  T  T </v>
   <v type="logical" >  T  T  T </v>
   <v type="logical" >  T  T  T </v>
   <v type="logical" >  F  F  F </v>
   <v type="logical" >  T  T  T </v>
   <v type="logical" >  T  T  T </v>
   <v type="logical" >  F  F  F </v>
   <v type="logical" >  F  F  F </v>
   <v type="logical" >  T  T  T </v>
   <v type="logical" >  T  T  T </v>
   <v type="logical" >  T  T  T </v>
   <v type="logical" >  F  F  F </v>
   <v type="logical" >  T  T  T </v>
   <v type="logical" >  T  T  T </v>
   <v type="logical" >  F  F  F </v>
   <v type="logical" >  F  F  F </v>
   <v type="logical" >  T  T  T </v>
   <v type="logical" >  T  T  T </v>
   <v type="logical" >  T  T  T </v>
   <v type="logical" >  F  F  F </v>
   <v type="logical" >  T  T  T </v>
   <v type="logical" >  T  T  T </v>
   <v type="logical" >  F  F  F </v>
   <v type="logical" >  F  F  F </v>
   <v type="logical" >  T  T  T </v>
   <v type="logical" >  T  T  T </v>
   <v type="logical" >  T  T  T </v>
   <v type="logical" >  F  F  F </v>
   <v type="logical" >  T  T  T </v>
   <v type="logical" >  T  T  T </v>
   <v type="logical" >  F  F  F </v>
  </varray>
  <nose>
   <v>      -3.00000000       0.00000000       0.00010000       0.00010000 </v>
  </nose>
 </structure>
 <calculation>
  <scstep>
   <time name="dav">   17.08   17.12</time>
   <time name="total">   18.59   18.68</time>
   <energy>
    <i name="alphaZ">   1839.19756306 </i>
    <i name="ewald"> 135640.65804657 </i>
    <i name="hartreedc">-188519.68473947 </i>
    <i name="XCdc">   1995.59521339 </i>
    <i name="pawpsdc">  46122.55799334 </i>
    <i name="pawaedc"> -45467.04419015 </i>
    <i name="eentropy">     -0.03703182 </i>
    <i name="bandstr">   3243.05645273 </i>
    <i name="atom">  56815.39572979 </i>
    <i name="e_fr_energy">  11669.69503742 </i>
    <i name="e_wo_entrp">  11669.73206924 </i>
    <i name="e_0_energy">  11669.71355333 </i>
   </energy>
  </scstep>
  <scstep>
   <time name="dav">   18.57   18.58</time>
   <time name="total">   18.57   18.58</time>
   <energy>
    <i name="e_fr_energy">   3037.82065127 </i>
    <i name="e_wo_entrp">   3037.99024594 </i>
    <i name="e_0_energy">   3037.90544860 </i>
   </energy>
  </scstep>
  <scstep>
   <time name="dav">   22.22   22.23</time>
   <time name="total">   22.22   22.23</time>
   <energy>
    <i name="e_fr_energy">   -393.35715921 </i>
    <i name="e_wo_entrp">   -393.34825969 </i>
    <i name="e_0_energy">   -393.35270945 </i>
   </energy>
  </scstep>
  <scstep>
   <time name="dav">   24.23   24.25</time>
   <time name="total">   24.24   24.25</time>
   <energy>
    <i name="e_fr_energy">   -887.05354190 </i>
    <i name="e_wo_entrp">   -886.99153204 </i>
    <i name="e_0_energy">   -887.02253697 </i>
   </energy>
  </scstep>
  <scstep>
   <time name="dav">   26.39   26.41</time>
   <time name="total">   27.81   27.83</time>
   <energy>
    <i name="e_fr_energy">   -907.50545344 </i>
    <i name="e_wo_entrp">   -907.35374460 </i>
    <i name="e_0_energy">   -907.42959902 </i>
   </energy>
  </scstep>
  <scstep>
   <time name="dav">   26.85   26.86</time>
   <time name="total">   29.72   29.74</time>
   <energy>
    <i name="e_fr_energy">  -1249.26191524 </i>
    <i name="e_wo_entrp">  -1249.08302688 </i>
    <i name="e_0_energy">  -1249.17247106 </i>
   </energy>
  </scstep>
  <scstep>
   <time name="dav">   24.10   24.11</time>
   <time name="total">   26.89   26.91</time>
   <energy>
    <i name="e_fr_energy">  -1546.15959907 </i>
    <i name="e_wo_entrp">  -1545.94746444 </i>
    <i name="e_0_energy">  -1546.05353175 </i>
   </energy>
  </scstep>
  <scstep>
   <time name="dav">   23.81   23.82</time>
   <time name="total">   26.60   26.62</time>
   <energy>
    <i name="e_fr_energy">  -1874.41438197 </i>
    <i name="e_wo_entrp">  -1874.35760743 </i>
    <i name="e_0_energy">  -1874.38599470 </i>
   </energy>
  </scstep>
  <scstep>
   <time name="dav">   23.13   23.14</time>
   <time name="total">   25.95   25.97</time>
   <energy>
    <i name="e_fr_energy">  -1188.15881465 </i>
    <i name="e_wo_entrp">  -1188.04303841 </i>
    <i name="e_0_energy">  -1188.10092653 </i>
   </energy>
  </scstep>
  <scstep>
   <time name="dav">   23.51   23.52</time>
   <time name="total">   26.33   26.34</time>
   <energy>
    <i name="e_fr_energy">  -1037.72692506 </i>
    <i name="e_wo_entrp">  -1037.63701303 </i>
    <i name="e_0_energy">  -1037.68196904 </i>
   </energy>
  </scstep>
  <scstep>
   <time name="dav">   27.88   27.90</time>
   <time name="total">   30.69   30.71</time>
   <energy>
    <i name="e_fr_energy">   -829.49455045 </i>
    <i name="e_wo_entrp">   -829.38981214 </i>
    <i name="e_0_energy">   -829.44218130 </i>
   </energy>
  </scstep>
  <scstep>
   <time name="dav">   27.24   27.25</time>
   <time name="total">   30.05   30.07</time>
   <energy>
    <i name="e_fr_energy">   -919.29919441 </i>
    <i name="e_wo_entrp">   -919.16602655 </i>
    <i name="e_0_energy">   -919.23261048 </i>
   </energy>
  </scstep>
  <scstep>
   <time name="dav">   26.06   26.08</time>
   <time name="total">   28.88   28.90</time>
   <energy>
    <i name="e_fr_energy">   -850.10220077 </i>
    <i name="e_wo_entrp">   -849.96196260 </i>
    <i name="e_0_energy">   -850.03208168 </i>
   </energy>
  </scstep>
  <scstep>
   <time name="dav">   23.47   23.48</time>
   <time name="total">   26.31   26.33</time>
   <energy>
    <i name="e_fr_energy">   -868.09869426 </i>
    <i name="e_wo_entrp">   -868.01767265 </i>
    <i name="e_0_energy">   -868.05818346 </i>
   </energy>
  </scstep>
  <scstep>
   <time name="dav">   22.54   22.55</time>
   <time name="total">   25.34   25.36</time>
   <energy>
    <i name="e_fr_energy">   -732.66528985 </i>
    <i name="e_wo_entrp">   -732.63732732 </i>
    <i name="e_0_energy">   -732.65130859 </i>
   </energy>
  </scstep>
  <scstep>
   <time name="dav">   26.09   26.11</time>
   <time name="total">   28.91   28.92</time>
   <energy>
    <i name="e_fr_energy">   -728.13366240 </i>
    <i name="e_wo_entrp">   -728.07623904 </i>
    <i name="e_0_energy">   -728.10495072 </i>
   </energy>
  </scstep>
  <scstep>
   <time name="dav">   23.97   23.98</time>
   <time name="total">   26.77   26.79</time>
   <energy>
    <i name="e_fr_energy">   -706.37473464 </i>
    <i name="e_wo_entrp">   -706.27591518 </i>
    <i name="e_0_energy">   -706.32532491 </i>
   </energy>
  </scstep>
  <scstep>
   <time name="dav">   24.99   25.01</time>
   <time name="total">   27.78   27.80</time>
   <energy>
    <i name="e_fr_energy">   -703.42715540 </i>
    <i name="e_wo_entrp">   -703.38516315 </i>
    <i name="e_0_energy">   -703.40615928 </i>
   </energy>
  </scstep>
  <scstep>
   <time name="dav">   26.25   26.26</time>
   <time name="total">   29.05   29.07</time>
   <energy>
    <i name="e_fr_energy">   -699.48117321 </i>
    <i name="e_wo_entrp">   -699.37787109 </i>
    <i name="e_0_energy">   -699.42952215 </i>
   </energy>
  </scstep>
  <scstep>
   <time name="dav">   26.03   26.04</time>
   <time name="total">   28.90   28.92</time>
   <energy>
    <i name="e_fr_energy">   -686.02404856 </i>
    <i name="e_wo_entrp">   -685.93098581 </i>
    <i name="e_0_energy">   -685.97751719 </i>
   </energy>
  </scstep>
  <scstep>
   <time name="dav">   27.27   27.28</time>
   <time name="total">   30.08   30.10</time>
   <energy>
    <i name="e_fr_energy">   -686.91403290 </i>
    <i name="e_wo_entrp">   -686.82953789 </i>
    <i name="e_0_energy">   -686.87178539 </i>
   </energy>
  </scstep>
  <scstep>
   <time name="dav">   27.51   27.52</time>
   <time name="total">   30.36   30.37</time>
   <energy>
    <i name="e_fr_energy">   -686.80354150 </i>
    <i name="e_wo_entrp">   -686.71913094 </i>
    <i name="e_0_energy">   -686.76133622 </i>
   </energy>
  </scstep>
  <scstep>
   <time name="dav">   25.95   25.96</time>
   <time name="total">   28.74   28.75</time>
   <energy>
    <i name="e_fr_energy">   -685.91444808 </i>
    <i name="e_wo_entrp">   -685.83186958 </i>
    <i name="e_0_energy">   -685.87315883 </i>
   </energy>
  </scstep>
  <scstep>
   <time name="dav">   23.76   23.77</time>
   <time name="total">   26.60   26.62</time>
   <energy>
    <i name="e_fr_energy">   -686.50829539 </i>
    <i name="e_wo_entrp">   -686.41573837 </i>
    <i name="e_0_energy">   -686.46201688 </i>
   </energy>
  </scstep>
  <scstep>
   <time name="dav">   26.16   26.17</time>
   <time name="total">   29.02   29.04</time>
   <energy>
    <i name="e_fr_energy">   -678.62559110 </i>
    <i name="e_wo_entrp">   -678.54036202 </i>
    <i name="e_0_energy">   -678.58297656 </i>
   </energy>
  </scstep>
  <scstep>
   <time name="dav">   22.85   22.86</time>
   <time name="total">   25.70   25.71</time>
   <energy>
    <i name="e_fr_energy">   -671.22085406 </i>
    <i name="e_wo_entrp">   -671.14806436 </i>
    <i name="e_0_energy">   -671.18445921 </i>
   </energy>
  </scstep>
  <scstep>
   <time name="dav">   28.36   28.38</time>
   <time name="total">   31.19   31.21</time>
   <energy>
    <i name="e_fr_energy">   -672.05559092 </i>
    <i name="e_wo_entrp">   -671.98587173 </i>
    <i name="e_0_energy">   -672.02073132 </i>
   </energy>
  </scstep>
  <scstep>
   <time name="dav">   27.44   27.45</time>
   <time name="total">   30.29   30.30</time>
   <energy>
    <i name="e_fr_energy">   -672.21771356 </i>
    <i name="e_wo_entrp">   -672.15056788 </i>
    <i name="e_0_energy">   -672.18414072 </i>
   </energy>
  </scstep>
  <scstep>
   <time name="dav">   25.95   25.96</time>
   <time name="total">   28.77   28.84</time>
   <energy>
    <i name="e_fr_energy">   -672.14033624 </i>
    <i name="e_wo_entrp">   -672.07448188 </i>
    <i name="e_0_energy">   -672.10740906 </i>
   </energy>
  </scstep>
  <scstep>
