<?xml version="1.0" encoding="ISO-8859-1"?>
<modeling>
 <generator>
  <i name="program" type="string">vasp </i>
  <i name="version" type="string">6.4.3  </i>
  <i name="subversion" type="string">19Mar24 (build Mar 01 2025 17:53:50) complex                          parallel </i>
  <i name="platform" type="string">Shaheen </i>
  <i name="date" type="string">2025 04 21 </i>
  <i name="time" type="string">16:39:07 </i>
 </generator>
 <incar>
  <i type="int" name="ISTART">     1</i>
  <i type="string" name="PREC">Accurate   (Precision level: Normal or Accurate, set Accurate when perform structure lattice relaxation calculation)</i>
  <i type="logical" name="ADDGRID"> T  </i>
  <i type="int" name="ISPIN">     2</i>
  <i type="int" name="NELM">    90</i>
  <i type="int" name="NELMIN">     6</i>
  <i type="int" name="IBRION">     2</i>
  <i name="EDIFF">      0.00000100</i>
  <i name="EDIFFG">     -0.02000000</i>
  <i type="int" name="NSW">   300</i>
  <i type="int" name="ISIF">     2</i>
  <i name="ENCUT">    520.00000000</i>
  <v name="MAGMOM">      0.60000000      0.60000000      0.60000000      0.60000000      0.60000000      0.60000000      1.00000000      1.00000000      1.00000000      1.00000000      1.00000000      1.00000000      1.00000000      1.00000000      1.00000000      1.00000000      1.00000000      1.00000000      1.00000000      1.00000000
      1.00000000      1.00000000      1.00000000      1.00000000      1.00000000      1.00000000      1.00000000      0.60000000      0.60000000      0.60000000      0.60000000      0.60000000      0.60000000      0.60000000      0.60000000      0.60000000      0.60000000      0.60000000      0.60000000      0.60000000
      0.60000000      0.60000000      0.60000000      0.60000000      0.60000000      0.60000000      0.60000000      0.60000000      0.60000000      0.60000000      0.60000000      0.60000000      0.60000000      0.60000000      0.60000000      0.60000000      0.60000000      0.60000000      0.60000000      0.60000000
      0.60000000      0.60000000      0.60000000      0.60000000      0.60000000      0.60000000      0.60000000      0.60000000      0.60000000      0.60000000      0.60000000      0.60000000      0.60000000      0.60000000      0.60000000      0.60000000      0.60000000      0.60000000      0.60000000      0.60000000
      0.60000000      0.60000000      0.60000000      0.60000000      0.60000000      0.60000000      0.60000000      0.60000000      0.60000000      0.60000000      0.60000000      0.60000000      0.60000000      0.60000000      0.60000000      0.60000000      0.60000000      0.60000000      0.60000000</v>
  <i type="logical" name="LREAL"> F  </i>
  <i type="int" name="ISMEAR">     0</i>
  <i name="SIGMA">      0.05000000</i>
  <i type="int" name="LMAXMIX">     6</i>
  <i type="logical" name="LWAVE"> F  </i>
  <i type="logical" name="LCHARG"> F  </i>
  <i type="logical" name="LASPH"> T  </i>
  <i type="logical" name="LDAU"> T  </i>
  <i type="int" name="LDAUTYPE">     2</i>
  <v type="int" name="LDAUL">     2     3    -1</v>
  <v name="LDAUU">      2.00000000      5.00000000      0.00000000</v>
  <v name="LDAUJ">      0.00000000      0.00000000      0.00000000</v>
 </incar>
 <primitive_cell>
  <structure name="primitive_cell" >
   <crystal>
    <varray name="basis" >
     <v>      11.59820000       0.00000000       0.00000000 </v>
     <v>      -5.79910000      10.04433584       0.00000000 </v>
     <v>       0.00000000       0.00000000      21.04820000 </v>
    </varray>
    <i name="volume">   2452.03565189 </i>
    <varray name="rec_basis" >
     <v>       0.08622028       0.04977930       0.00000000 </v>
     <v>       0.00000000       0.09955860       0.00000000 </v>
     <v>       0.00000000       0.00000000       0.04751000 </v>
    </varray>
   </crystal>
   <varray name="positions" >
    <v>       0.01075685       0.98924315       0.44445876 </v>
    <v>       0.64048841       0.02013560       0.46590423 </v>
    <v>       0.97986440       0.35951159       0.46590423 </v>
    <v>       0.34465303       0.32583906       0.44438995 </v>
    <v>       0.31475375       0.68524625       0.45820126 </v>
    <v>       0.67416094       0.65534697       0.44438995 </v>
    <v>       0.22677815       0.10696414       0.30651620 </v>
    <v>       0.11111000       0.22222000       0.15999000 </v>
    <v>       0.33177317       0.00375700       0.46160895 </v>
    <v>       0.55888285       0.11045034       0.31063188 </v>
    <v>       0.44444000       0.22222000       0.15999000 </v>
    <v>       0.89038144       0.10961856       0.31345661 </v>
    <v>       0.77778000       0.22222000       0.15999000 </v>
    <v>       0.22252406       0.44109066       0.31182971 </v>
    <v>       0.11111000       0.55556000       0.15999000 </v>
    <v>       0.55909975       0.44090025       0.30711420 </v>
    <v>       0.44444000       0.55556000       0.15999000 </v>
    <v>       0.67095449       0.32904551       0.46383017 </v>
    <v>       0.88954966       0.44111715       0.31063188 </v>
    <v>       0.77778000       0.55556000       0.15999000 </v>
    <v>       0.99624300       0.66822683       0.46160895 </v>
    <v>       0.22375397       0.77624603       0.31164388 </v>
    <v>       0.11111000       0.88889000       0.15999000 </v>
    <v>       0.55890934       0.77747594       0.31182971 </v>
    <v>       0.44444000       0.88889000       0.15999000 </v>
    <v>       0.89303586       0.77322185       0.30651620 </v>
    <v>       0.77778000       0.88889000       0.15999000 </v>
    <v>       0.00000000       0.00000000       0.12250000 </v>
    <v>       0.00424728       0.99575272       0.52746612 </v>
    <v>       0.10889086       0.22359145       0.27474200 </v>
    <v>       0.19976505       0.13616401       0.43018966 </v>
    <v>       0.11111000       0.22222000       0.04751000 </v>
    <v>       0.06357430       0.27298270       0.48393269 </v>
    <v>       0.00965336       0.99034664       0.34230545 </v>
    <v>       0.22222000       0.11111000       0.19748000 </v>
    <v>       0.33333000       0.00000000       0.12250000 </v>
    <v>       0.32467668       0.99740833       0.55122544 </v>
    <v>       0.44775325       0.21755559       0.27026951 </v>
    <v>       0.55598342       0.10890583       0.42092442 </v>
    <v>       0.44444000       0.22222000       0.04751000 </v>
    <v>       0.44567364       0.24213649       0.43449758 </v>
    <v>       0.33480972       0.00000019       0.34539260 </v>
    <v>       0.55556000       0.11111000       0.19748000 </v>
    <v>       0.66667000       0.00000000       0.12250000 </v>
    <v>       0.59069501       0.05306948       0.53916133 </v>
    <v>       0.78244049       0.21755951       0.27535758 </v>
    <v>       0.92310217       0.07689783       0.42331588 </v>
    <v>       0.77778000       0.22222000       0.04751000 </v>
    <v>       0.79665556       0.20334444       0.45962312 </v>
    <v>       0.67518829       0.00202364       0.36207421 </v>
    <v>       0.88889000       0.11111000       0.19748000 </v>
    <v>       1.00000000       0.33333000       0.12250000 </v>
    <v>       0.94693052       0.40930499       0.53916133 </v>
    <v>       0.11427318       0.55012187       0.27594885 </v>
    <v>       0.25262114       0.40723551       0.42173018 </v>
    <v>       0.11111000       0.55556000       0.04751000 </v>
    <v>       0.13258895       0.53472610       0.44624007 </v>
    <v>       0.99797636       0.32481171       0.36207421 </v>
    <v>       0.22222000       0.44444000       0.19748000 </v>
    <v>       0.33333000       0.33333000       0.12250000 </v>
    <v>       0.33615417       0.32930855       0.52789182 </v>
    <v>       0.44221436       0.55778564       0.27534821 </v>
    <v>       0.51513425       0.48486575       0.42131939 </v>
    <v>       0.44444000       0.55556000       0.04751000 </v>
    <v>       0.39989603       0.60010397       0.49542575 </v>
    <v>       0.33968128       0.32272748       0.34055876 </v>
    <v>       0.55556000       0.44444000       0.19748000 </v>
    <v>       0.66667000       0.33333000       0.12250000 </v>
    <v>       0.66094226       0.33905774       0.55267455 </v>
    <v>       0.78244441       0.55224675       0.27026951 </v>
    <v>       0.89109417       0.44401658       0.42092442 </v>
    <v>       0.77778000       0.55556000       0.04751000 </v>
    <v>       0.75786351       0.55432636       0.43449758 </v>
    <v>       0.66822817       0.33177183       0.34379233 </v>
    <v>       0.88889000       0.44444000       0.19748000 </v>
    <v>       1.00000000       0.66667000       0.12250000 </v>
    <v>       0.00259167       0.67532332       0.55122544 </v>
    <v>       0.11527616       0.88472384       0.27076295 </v>
    <v>       0.22413686       0.77586314       0.42437480 </v>
    <v>       0.11111000       0.88889000       0.04751000 </v>
    <v>       0.10323807       0.89676193       0.43323213 </v>
    <v>       0.99999981       0.66519028       0.34539260 </v>
    <v>       0.22222000       0.77778000       0.19748000 </v>
    <v>       0.33333000       0.66667000       0.12250000 </v>
    <v>       0.29179899       0.70820101       0.54207457 </v>
    <v>       0.44987813       0.88572682       0.27594885 </v>
    <v>       0.59276449       0.74737886       0.42173018 </v>
    <v>       0.44444000       0.88889000       0.04751000 </v>
    <v>       0.46527390       0.86741105       0.44624007 </v>
    <v>       0.33669691       0.66330309       0.35966718 </v>
    <v>       0.55556000       0.77778000       0.19748000 </v>
    <v>       0.66667000       0.66667000       0.12250000 </v>
    <v>       0.67069145       0.66384583       0.52789182 </v>
    <v>       0.77640855       0.89110914       0.27474200 </v>
    <v>       0.86383599       0.80023495       0.43018966 </v>
    <v>       0.77778000       0.88889000       0.04751000 </v>
    <v>       0.72701730       0.93642570       0.48393269 </v>
    <v>       0.67727252       0.66031872       0.34055876 </v>
    <v>       0.88889000       0.77778000       0.19748000 </v>
   </varray>
  </structure>
  <varray name="primitive_index" >
   <v type="int" >        1 </v>
   <v type="int" >        2 </v>
   <v type="int" >        3 </v>
   <v type="int" >        4 </v>
   <v type="int" >        5 </v>
   <v type="int" >        6 </v>
   <v type="int" >        7 </v>
   <v type="int" >        8 </v>
   <v type="int" >        9 </v>
   <v type="int" >       10 </v>
   <v type="int" >       11 </v>
   <v type="int" >       12 </v>
   <v type="int" >       13 </v>
   <v type="int" >       14 </v>
   <v type="int" >       15 </v>
   <v type="int" >       16 </v>
   <v type="int" >       17 </v>
   <v type="int" >       18 </v>
   <v type="int" >       19 </v>
   <v type="int" >       20 </v>
   <v type="int" >       21 </v>
   <v type="int" >       22 </v>
   <v type="int" >       23 </v>
   <v type="int" >       24 </v>
   <v type="int" >       25 </v>
   <v type="int" >       26 </v>
   <v type="int" >       27 </v>
   <v type="int" >       28 </v>
   <v type="int" >       29 </v>
   <v type="int" >       30 </v>
   <v type="int" >       31 </v>
   <v type="int" >       32 </v>
   <v type="int" >       33 </v>
   <v type="int" >       34 </v>
   <v type="int" >       35 </v>
   <v type="int" >       36 </v>
   <v type="int" >       37 </v>
   <v type="int" >       38 </v>
   <v type="int" >       39 </v>
   <v type="int" >       40 </v>
   <v type="int" >       41 </v>
   <v type="int" >       42 </v>
   <v type="int" >       43 </v>
   <v type="int" >       44 </v>
   <v type="int" >       45 </v>
   <v type="int" >       46 </v>
   <v type="int" >       47 </v>
   <v type="int" >       48 </v>
   <v type="int" >       49 </v>
   <v type="int" >       50 </v>
   <v type="int" >       51 </v>
   <v type="int" >       52 </v>
   <v type="int" >       53 </v>
   <v type="int" >       54 </v>
   <v type="int" >       55 </v>
   <v type="int" >       56 </v>
   <v type="int" >       57 </v>
   <v type="int" >       58 </v>
   <v type="int" >       59 </v>
   <v type="int" >       60 </v>
   <v type="int" >       61 </v>
   <v type="int" >       62 </v>
   <v type="int" >       63 </v>
   <v type="int" >       64 </v>
   <v type="int" >       65 </v>
   <v type="int" >       66 </v>
   <v type="int" >       67 </v>
   <v type="int" >       68 </v>
   <v type="int" >       69 </v>
   <v type="int" >       70 </v>
   <v type="int" >       71 </v>
   <v type="int" >       72 </v>
   <v type="int" >       73 </v>
   <v type="int" >       74 </v>
   <v type="int" >       75 </v>
   <v type="int" >       76 </v>
   <v type="int" >       77 </v>
   <v type="int" >       78 </v>
   <v type="int" >       79 </v>
   <v type="int" >       80 </v>
   <v type="int" >       81 </v>
   <v type="int" >       82 </v>
   <v type="int" >       83 </v>
   <v type="int" >       84 </v>
   <v type="int" >       85 </v>
   <v type="int" >       86 </v>
   <v type="int" >       87 </v>
   <v type="int" >       88 </v>
   <v type="int" >       89 </v>
   <v type="int" >       90 </v>
   <v type="int" >       91 </v>
   <v type="int" >       92 </v>
   <v type="int" >       93 </v>
   <v type="int" >       94 </v>
   <v type="int" >       95 </v>
   <v type="int" >       96 </v>
   <v type="int" >       97 </v>
   <v type="int" >       98 </v>
   <v type="int" >       99 </v>
  </varray>
 </primitive_cell>
 <kpoints>
  <generation param="Monkhorst-Pack">
   <v type="int" name="divisions">       3        3        1 </v>
   <v name="usershift">      0.00000000       0.00000000       0.00000000 </v>
   <v name="genvec1">      0.33333333      -0.00000000       0.00000000 </v>
   <v name="genvec2">      0.00000000       0.33333333       0.00000000 </v>
   <v name="genvec3">      0.00000000       0.00000000       1.00000000 </v>
   <v name="shift">      0.00000000       0.00000000       0.00000000 </v>
  </generation>
  <varray name="kpointlist" >
   <v>       0.00000000       0.00000000       0.00000000 </v>
   <v>       0.33333333      -0.00000000       0.00000000 </v>
   <v>      -0.33333333       0.33333333       0.00000000 </v>
   <v>       0.33333333       0.33333333       0.00000000 </v>
  </varray>
  <varray name="weights" >
   <v>       0.11111111 </v>
   <v>       0.44444444 </v>
   <v>       0.22222222 </v>
   <v>       0.22222222 </v>
  </varray>
 </kpoints>
 <parameters>
  <separator name="general" >
   <i type="string" name="SYSTEM">unknown system</i>
   <i type="logical" name="LCOMPAT"> F  </i>
  </separator>
  <separator name="electronic" >
   <i type="string" name="PREC">accura</i>
   <i name="ENMAX">    520.00000000</i>
   <i name="ENAUG">    605.39200000</i>
   <i name="EDIFF">      0.00000100</i>
   <i type="int" name="IALGO">    38</i>
   <i type="int" name="IWAVPR">    11</i>
   <i type="int" name="NBANDS">   480</i>
   <i type="int" name="NBANDSLOW">    -1</i>
   <i type="int" name="NBANDSHIGH">    -1</i>
   <i name="NELECT">    738.00000000</i>
   <i type="int" name="TURBO">     0</i>
   <i type="int" name="IRESTART">     0</i>
   <i type="int" name="NREBOOT">     0</i>
   <i type="int" name="NMIN">     0</i>
   <i name="EREF">      0.00000000</i>
   <separator name="electronic smearing" >
    <i type="int" name="ISMEAR">     0</i>
    <i name="SIGMA">      0.05000000</i>
    <i name="KSPACING">      0.50000000</i>
    <i type="logical" name="KGAMMA"> T  </i>
    <i type="logical" name="KBLOWUP"> T  </i>
   </separator>
   <separator name="electronic projectors" >
    <i type="logical" name="LREAL"> F  </i>
    <v name="ROPT">      0.00000000      0.00000000      0.00000000</v>
    <i type="int" name="LMAXPAW">  -100</i>
    <i type="int" name="LMAXMIX">     6</i>
    <i type="logical" name="NLSPLINE"> F  </i>
   </separator>
   <separator name="electronic startup" >
    <i type="int" name="ISTART">     0</i>
    <i type="int" name="ICHARG">     2</i>
    <i type="int" name="INIWAV">     1</i>
   </separator>
   <separator name="electronic spin" >
    <i type="int" name="ISPIN">     2</i>
    <i type="logical" name="LNONCOLLINEAR"> F  </i>
    <v name="MAGMOM">      0.60000000      0.60000000      0.60000000      0.60000000      0.60000000      0.60000000      1.00000000      1.00000000      1.00000000      1.00000000      1.00000000      1.00000000      1.00000000      1.00000000      1.00000000      1.00000000      1.00000000      1.00000000      1.00000000      1.00000000
      1.00000000      1.00000000      1.00000000      1.00000000      1.00000000      1.00000000      1.00000000      0.60000000      0.60000000      0.60000000      0.60000000      0.60000000      0.60000000      0.60000000      0.60000000      0.60000000      0.60000000      0.60000000      0.60000000      0.60000000
      0.60000000      0.60000000      0.60000000      0.60000000      0.60000000      0.60000000      0.60000000      0.60000000      0.60000000      0.60000000      0.60000000      0.60000000      0.60000000      0.60000000      0.60000000      0.60000000      0.60000000      0.60000000      0.60000000      0.60000000
      0.60000000      0.60000000      0.60000000      0.60000000      0.60000000      0.60000000      0.60000000      0.60000000      0.60000000      0.60000000      0.60000000      0.60000000      0.60000000      0.60000000      0.60000000      0.60000000      0.60000000      0.60000000      0.60000000      0.60000000
      0.60000000      0.60000000      0.60000000      0.60000000      0.60000000      0.60000000      0.60000000      0.60000000      0.60000000      0.60000000      0.60000000      0.60000000      0.60000000      0.60000000      0.60000000      0.60000000      0.60000000      0.60000000      0.60000000</v>
    <i name="NUPDOWN">     -1.00000000</i>
    <i type="logical" name="LSORBIT"> F  </i>
    <v name="SAXIS">      0.00000000      0.00000000      1.00000000</v>
    <i type="logical" name="LSPIRAL"> F  </i>
    <v name="QSPIRAL">      0.00000000      0.00000000      0.00000000</v>
    <i type="logical" name="LZEROZ"> F  </i>
   </separator>
   <separator name="electronic exchange-correlation" >
    <i type="logical" name="LASPH"> T  </i>
   </separator>
   <separator name="electronic convergence" >
    <i type="int" name="NELM">    90</i>
    <i type="int" name="NELMDL">     0</i>
    <i type="int" name="NELMIN">     6</i>
    <i name="ENINI">    520.00000000</i>
    <separator name="electronic convergence detail" >
     <i type="logical" name="LDIAG"> T  </i>
     <i type="logical" name="LSUBROT"> F  </i>
     <i name="WEIMIN">      0.00100000</i>
     <i name="EBREAK">      0.00000000</i>
     <i name="DEPER">      0.30000000</i>
     <i type="int" name="NRMM">     4</i>
     <i name="TIME">      0.40000000</i>
    </separator>
   </separator>
   <separator name="electronic mixer" >
    <i name="AMIX">      0.40000000</i>
    <i name="BMIX">      1.00000000</i>
    <i name="AMIN">      0.10000000</i>
    <i name="AMIX_MAG">      1.60000000</i>
    <i name="BMIX_MAG">      1.00000000</i>
    <separator name="electronic mixer details" >
     <i type="int" name="IMIX">     4</i>
     <i type="logical" name="MIXFIRST"> F  </i>
     <i type="int" name="MAXMIX">   -45</i>
     <i name="WC">    100.00000000</i>
     <i type="int" name="INIMIX">     1</i>
     <i type="int" name="MIXPRE">     1</i>
     <i type="int" name="MREMOVE">     5</i>
    </separator>
   </separator>
   <separator name="electronic dipolcorrection" >
    <i type="logical" name="LDIPOL"> F  </i>
    <i type="logical" name="LMONO"> F  </i>
    <i type="int" name="IDIPOL">     0</i>
    <i name="EPSILON">      1.00000000</i>
    <v name="DIPOL">   -100.00000000   -100.00000000   -100.00000000</v>
    <i name="EFIELD">      0.00000000</i>
    <i type="logical" name="LVACPOTAV"> F  </i>
   </separator>
  </separator>
  <separator name="grids" >
   <i type="int" name="NGX">    90</i>
   <i type="int" name="NGY">    90</i>
   <i type="int" name="NGZ">   160</i>
   <i type="int" name="NGXF">   180</i>
   <i type="int" name="NGYF">   180</i>
   <i type="int" name="NGZF">   320</i>
   <i type="logical" name="ADDGRID"> T  </i>
  </separator>
  <separator name="ionic" >
   <i type="int" name="NSW">   300</i>
   <i type="int" name="IBRION">     2</i>
   <i type="int" name="MDALGO">     0</i>
   <i type="int" name="ISIF">     2</i>
   <i name="PSTRESS">      0.00000000</i>
   <i name="EDIFFG">     -0.02000000</i>
   <i type="int" name="NFREE">     1</i>
   <i name="POTIM">      0.50000000</i>
   <i name="SMASS">     -3.00000000</i>
   <i name="SCALEE">      1.00000000</i>
  </separator>
  <separator name="ionic md" >
   <i name="TEBEG">      0.00010000</i>
   <i name="TEEND">      0.00010000</i>
   <i type="int" name="NBLOCK">     1</i>
   <i type="int" name="KBLOCK">   300</i>
   <i type="int" name="NPACO">   256</i>
   <i name="APACO">     10.00000000</i>
  </separator>
  <separator name="symmetry" >
   <i type="int" name="ISYM">     2</i>
   <i name="SYMPREC">      0.00001000</i>
  </separator>
  <separator name="dos" >
   <i type="int" name="LORBIT">     0</i>
   <v name="RWIGS">     -1.00000000     -1.00000000     -1.00000000</v>
   <i type="int" name="NEDOS">   301</i>
   <i name="EMIN">     10.00000000</i>
   <i name="EMAX">    -10.00000000</i>
   <i name="EFERMI">      0.00000000</i>
  </separator>
  <separator name="writing" >
   <i type="int" name="NWRITE">     2</i>
   <i type="logical" name="LWAVE"> F  </i>
   <i type="logical" name="LDOWNSAMPLE"> F  </i>
   <i type="logical" name="LCHARG"> F  </i>
   <i type="logical" name="LPARD"> F  </i>
   <i type="logical" name="LVTOT"> F  </i>
   <i type="logical" name="LVHAR"> F  </i>
   <i type="logical" name="LELF"> F  </i>
   <i type="logical" name="LOPTICS"> F  </i>
   <v name="STM">      0.00000000      0.00000000      0.00000000      0.00000000      0.00000000      0.00000000      0.00000000</v>
  </separator>
  <separator name="performance" >
   <i type="int" name="NPAR">    48</i>
   <i type="int" name="NSIM">     4</i>
   <i type="int" name="NBLK">    -1</i>
   <i type="logical" name="LPLANE"> T  </i>
   <i type="logical" name="LSCALAPACK"> T  </i>
   <i type="logical" name="LSCAAWARE"> T  </i>
   <i type="logical" name="LSCALU"> F  </i>
   <i type="logical" name="LASYNC"> F  </i>
   <i type="logical" name="LORBITALREAL"> F  </i>
  </separator>
  <separator name="miscellaneous" >
   <i type="int" name="IDIOT">     3</i>
   <i type="int" name="PHON_NSTRUCT">    -1</i>
   <i type="logical" name="LMUSIC"> F  </i>
   <v name="POMASS">    192.22000000    140.11500000     16.00000000</v>
   <v name="DARWINR">      0.00000000      0.00000000      0.00000000</v>
   <v name="DARWINV">      1.00000000      1.00000000      1.00000000</v>
   <i type="logical" name="LCORR"> T  </i>
  </separator>
  <i type="logical" name="GGA_COMPAT"> T  </i>
  <i type="logical" name="LBERRY"> F  </i>
  <i type="int" name="ICORELEVEL">     0</i>
  <i type="logical" name="LDAU"> T  </i>
  <v type="int" name="LDAUTYPE">     2</v>
  <v type="int" name="LDAUL">     2</v>
  <v name="LDAUU">      2.00000000</v>
  <v name="LDAUJ">      0.00000000</v>
  <i type="int" name="LDAUPRINT">     0</i>
  <i type="int" name="I_CONSTRAINED_M">     0</i>
  <separator name="electronic exchange-correlation" >
   <i type="string" name="GGA    ">PE</i>
   <i type="string" name="XC_C">1</i>
   <i type="int" name="VOSKOWN">     0</i>
   <i type="logical" name="LHFCALC"> F  </i>
   <i type="string" name="PRECFOCK"></i>
   <i type="logical" name="LSYMGRAD"> F  </i>
   <i type="logical" name="LHFONE"> F  </i>
   <i type="logical" name="LRHFCALC"> F  </i>
   <i type="logical" name="LTHOMAS"> F  </i>
   <i type="logical" name="LMODELHF"> F  </i>
   <i type="logical" name="LFOCKACE"> F  </i>
   <i name="ENCUT4O">     -1.00000000</i>
   <i type="int" name="EXXOEP">     0</i>
   <i type="int" name="FOURORBIT">     0</i>
   <i name="AEXX">      0.00000000</i>
   <i name="HFALPHA">      0.00000000</i>
   <i name="MCALPHA">      0.00000000</i>
   <i name="ALDAX">      1.00000000</i>
   <i name="AGGAX">      1.00000000</i>
   <i name="AMGGAX">      1.00000000</i>
   <i name="ALDAC">      1.00000000</i>
   <i name="AGGAC">      1.00000000</i>
   <i name="AMGGAC">      1.00000000</i>
   <i type="int" name="NKREDX">     1</i>
   <i type="int" name="NKREDY">     1</i>
   <i type="int" name="NKREDZ">     1</i>
   <i type="logical" name="SHIFTRED"> F  </i>
   <i type="logical" name="ODDONLY"> F  </i>
   <i type="logical" name="EVENONLY"> F  </i>
   <i type="int" name="LMAXFOCK">     0</i>
   <i type="int" name="NMAXFOCKAE">     0</i>
   <i type="logical" name="LFOCKAEDFT"> F  </i>
   <i name="HFSCREEN">      0.00000000</i>
   <i name="HFSCREENC">      0.00000000</i>
   <i type="int" name="NBANDSGWLOW">     0</i>
  </separator>
  <separator name="vdW DFT" >
   <i type="logical" name="LUSE_VDW"> F  </i>
   <i type="int" name="IVDW_NL">    -1</i>
   <i type="logical" name="LSPIN_VDW"> F  </i>
   <i name="ZAB_VDW">     -0.84910000</i>
   <i name="GAMMA_VDW">      1.39626340</i>
   <i name="ALPHA_VDW">      0.00000000</i>
   <i name="PARAM1">      0.12340000</i>
   <i name="PARAM2">      1.00000000</i>
   <i name="BPARAM">      6.30000000</i>
   <i name="CPARAM">      0.00930000</i>
  </separator>
  <separator name="model GW" >
   <i type="int" name="MODEL_GW">     0</i>
   <i name="MODEL_EPS0">     14.86082213</i>
   <i name="MODEL_ALPHA">      1.00000000</i>
  </separator>
  <separator name="linear response parameters" >
   <i type="logical" name="LEPSILON"> F  </i>
   <i type="logical" name="LRPA"> F  </i>
   <i type="logical" name="LNABLA"> F  </i>
   <i type="logical" name="LVEL"> F  </i>
   <i name="CSHIFT">      0.10000000</i>
   <i name="OMEGAMAX">     -1.00000000</i>
   <i name="DEG_THRESHOLD">      0.00200000</i>
   <i name="RTIME">     -0.10000000</i>
   <i name="WPLASMAI">      0.00000000</i>
   <v name="DFIELD">      0.00000000      0.00000000      0.00000000</v>
   <v name="WPLASMA">      0.00000000      0.00000000      0.00000000      0.00000000      0.00000000      0.00000000      0.00000000      0.00000000      0.00000000</v>
  </separator>
  <separator name="orbital magnetization" >
   <i type="logical" name="NUCIND"> F  </i>
   <v name="MAGPOS">      0.00000000      0.00000000      0.00000000</v>
   <i type="logical" name="LNICSALL"> T  </i>
   <i type="logical" name="ORBITALMAG"> F  </i>
   <i type="logical" name="LMAGBLOCH"> F  </i>
   <i type="logical" name="LCHIMAG"> F  </i>
   <i type="logical" name="LGAUGE"> T  </i>
   <i type="int" name="MAGATOM">     0</i>
   <v name="MAGDIPOL">      0.00000000      0.00000000      0.00000000</v>
   <v name="AVECCONST">      0.00000000      0.00000000      0.00000000</v>
  </separator>
  <separator name="response functions" >
   <i type="logical" name="LALL_IN_ONE"> F  </i>
   <i type="int" name="IALL_IN_ONE">    -1</i>
   <i type="int" name="NBANDS_WAVE">    -1</i>
   <i type="logical" name="LFINITE_TEMPERATURE"> F  </i>
   <i type="logical" name="LADDER"> F  </i>
   <i type="logical" name="LRPAFORCE"> F  </i>
   <i type="logical" name="LFXC"> F  </i>
   <i type="logical" name="LHARTREE"> T  </i>
   <i type="int" name="IBSE">     0</i>
   <v type="int" name="KPOINT">    -1     0     0     0</v>
   <i type="logical" name="LTCTC"> F  </i>
   <i type="logical" name="LTCTE"> F  </i>
   <i type="logical" name="LTETE"> F  </i>
   <i type="logical" name="LTRIPLET"> F  </i>
   <i type="logical" name="LFXCEPS"> F  </i>
   <i type="logical" name="LFXHEG"> F  </i>
   <i type="int" name="NATURALO">     2</i>
   <i type="logical" name="LHOLEGF"> F  </i>
   <i type="logical" name="L2ORDER"> F  </i>
   <i type="logical" name="LDMP1"> F  </i>
   <i type="logical" name="LMP2LT"> F  </i>
   <i type="logical" name="LSMP2LT"> F  </i>
   <i type="logical" name="LGWLF"> F  </i>
   <i name="ENCUTGW">     -1.60000002</i>
   <i name="ENCUTGWSOFT">     -1.60000002</i>
   <i name="ENCUTLF">     -1.00000000</i>
   <i type="logical" name="ESF_SPLINES"> F  </i>
   <i name="ESF_CONV">      0.01000000</i>
   <i type="int" name="ESF_NINTER">    15</i>
   <i type="int" name="LMAXMP2">    -1</i>
   <i name="SCISSOR">      0.00000000</i>
   <i type="int" name="NOMEGA">     0</i>
   <i type="int" name="NOMEGAR">     0</i>
   <i type="int" name="NBANDSGW">    -1</i>
   <i type="int" name="NBANDSO">    -1</i>
   <i type="int" name="NBANDSV">    -1</i>
   <i type="int" name="NELMGW">     1</i>
   <i type="int" name="NELMHF">     1</i>
   <i type="int" name="DIM">     3</i>
   <i type="int" name="IESPILON">     4</i>
   <i type="int" name="ANTIRES">     0</i>
   <i name="OMEGAMAX">    -30.00000000</i>
   <i name="OMEGAMIN">    -30.00000000</i>
   <i name="OMEGATL">   -200.00000000</i>
   <i type="int" name="OMEGAGRID">     0</i>
   <i name="CSHIFT">     -0.10000000</i>
   <i type="logical" name="LSELFENERGY"> F  </i>
   <i type="logical" name="LSPECTRAL"> F  </i>
   <i type="logical" name="LSPECTRALGW"> F  </i>
   <i type="logical" name="LSINGLES"> F  </i>
   <i type="logical" name="LFERMIGW"> F  </i>
   <i type="logical" name="ODDONLYGW"> F  </i>
   <i type="logical" name="EVENONLYGW"> F  </i>
   <i type="int" name="NKREDLFX">     1</i>
   <i type="int" name="NKREDLFY">     1</i>
   <i type="int" name="NKREDLFZ">     1</i>
   <i type="int" name="MAXMEM">  2800</i>
   <i type="int" name="TELESCOPE">     0</i>
   <i type="int" name="NTAUPAR">    -1</i>
   <i type="int" name="NOMEGAPAR">    -1</i>
   <i name="DAMP_NEWTON">      0.80000001</i>
   <i name="LAMBDA">      1.00000000</i>
  </separator>
  <separator name="External order field" >
   <i name="OFIELD_KAPPA">      0.00000000</i>
   <v name="OFIELD_K">      0.00000000      0.00000000      0.00000000</v>
   <i name="OFIELD_Q6_NEAR">      0.00000000</i>
   <i name="OFIELD_Q6_FAR">      0.00000000</i>
   <i name="OFIELD_A">      0.00000000</i>
  </separator>
  <separator name="optional k-points parameters" >
   <i type="int" name="KPOINTS_OPT_MODE">     1</i>
   <i type="logical" name="LKPOINTS_OPT"> F  </i>
  </separator>
 </parameters>
 <atominfo>
  <atoms>      99 </atoms>
  <types>       3 </types>
  <array name="atoms" >
   <dimension dim="1">ion</dimension>
   <field type="string">element</field>
   <field type="int">atomtype</field>
   <set>
    <rc><c>Ir</c><c>   1</c></rc>
    <rc><c>Ir</c><c>   1</c></rc>
    <rc><c>Ir</c><c>   1</c></rc>
    <rc><c>Ir</c><c>   1</c></rc>
    <rc><c>Ir</c><c>   1</c></rc>
    <rc><c>Ir</c><c>   1</c></rc>
    <rc><c>Ce</c><c>   2</c></rc>
    <rc><c>Ce</c><c>   2</c></rc>
    <rc><c>Ce</c><c>   2</c></rc>
    <rc><c>Ce</c><c>   2</c></rc>
    <rc><c>Ce</c><c>   2</c></rc>
    <rc><c>Ce</c><c>   2</c></rc>
    <rc><c>Ce</c><c>   2</c></rc>
    <rc><c>Ce</c><c>   2</c></rc>
    <rc><c>Ce</c><c>   2</c></rc>
    <rc><c>Ce</c><c>   2</c></rc>
    <rc><c>Ce</c><c>   2</c></rc>
    <rc><c>Ce</c><c>   2</c></rc>
    <rc><c>Ce</c><c>   2</c></rc>
    <rc><c>Ce</c><c>   2</c></rc>
    <rc><c>Ce</c><c>   2</c></rc>
    <rc><c>Ce</c><c>   2</c></rc>
    <rc><c>Ce</c><c>   2</c></rc>
    <rc><c>Ce</c><c>   2</c></rc>
    <rc><c>Ce</c><c>   2</c></rc>
    <rc><c>Ce</c><c>   2</c></rc>
    <rc><c>Ce</c><c>   2</c></rc>
    <rc><c>O </c><c>   3</c></rc>
    <rc><c>O </c><c>   3</c></rc>
    <rc><c>O </c><c>   3</c></rc>
    <rc><c>O </c><c>   3</c></rc>
    <rc><c>O </c><c>   3</c></rc>
    <rc><c>O </c><c>   3</c></rc>
    <rc><c>O </c><c>   3</c></rc>
    <rc><c>O </c><c>   3</c></rc>
    <rc><c>O </c><c>   3</c></rc>
    <rc><c>O </c><c>   3</c></rc>
    <rc><c>O </c><c>   3</c></rc>
    <rc><c>O </c><c>   3</c></rc>
    <rc><c>O </c><c>   3</c></rc>
    <rc><c>O </c><c>   3</c></rc>
    <rc><c>O </c><c>   3</c></rc>
    <rc><c>O </c><c>   3</c></rc>
    <rc><c>O </c><c>   3</c></rc>
    <rc><c>O </c><c>   3</c></rc>
    <rc><c>O </c><c>   3</c></rc>
    <rc><c>O </c><c>   3</c></rc>
    <rc><c>O </c><c>   3</c></rc>
    <rc><c>O </c><c>   3</c></rc>
    <rc><c>O </c><c>   3</c></rc>
    <rc><c>O </c><c>   3</c></rc>
    <rc><c>O </c><c>   3</c></rc>
    <rc><c>O </c><c>   3</c></rc>
    <rc><c>O </c><c>   3</c></rc>
    <rc><c>O </c><c>   3</c></rc>
    <rc><c>O </c><c>   3</c></rc>
    <rc><c>O </c><c>   3</c></rc>
    <rc><c>O </c><c>   3</c></rc>
    <rc><c>O </c><c>   3</c></rc>
    <rc><c>O </c><c>   3</c></rc>
    <rc><c>O </c><c>   3</c></rc>
    <rc><c>O </c><c>   3</c></rc>
    <rc><c>O </c><c>   3</c></rc>
    <rc><c>O </c><c>   3</c></rc>
    <rc><c>O </c><c>   3</c></rc>
    <rc><c>O </c><c>   3</c></rc>
    <rc><c>O </c><c>   3</c></rc>
    <rc><c>O </c><c>   3</c></rc>
    <rc><c>O </c><c>   3</c></rc>
    <rc><c>O </c><c>   3</c></rc>
    <rc><c>O </c><c>   3</c></rc>
    <rc><c>O </c><c>   3</c></rc>
    <rc><c>O </c><c>   3</c></rc>
    <rc><c>O </c><c>   3</c></rc>
    <rc><c>O </c><c>   3</c></rc>
    <rc><c>O </c><c>   3</c></rc>
    <rc><c>O </c><c>   3</c></rc>
    <rc><c>O </c><c>   3</c></rc>
    <rc><c>O </c><c>   3</c></rc>
    <rc><c>O </c><c>   3</c></rc>
    <rc><c>O </c><c>   3</c></rc>
    <rc><c>O </c><c>   3</c></rc>
    <rc><c>O </c><c>   3</c></rc>
    <rc><c>O </c><c>   3</c></rc>
    <rc><c>O </c><c>   3</c></rc>
    <rc><c>O </c><c>   3</c></rc>
    <rc><c>O </c><c>   3</c></rc>
    <rc><c>O </c><c>   3</c></rc>
    <rc><c>O </c><c>   3</c></rc>
    <rc><c>O </c><c>   3</c></rc>
    <rc><c>O </c><c>   3</c></rc>
    <rc><c>O </c><c>   3</c></rc>
    <rc><c>O </c><c>   3</c></rc>
    <rc><c>O </c><c>   3</c></rc>
    <rc><c>O </c><c>   3</c></rc>
    <rc><c>O </c><c>   3</c></rc>
    <rc><c>O </c><c>   3</c></rc>
    <rc><c>O </c><c>   3</c></rc>
    <rc><c>O </c><c>   3</c></rc>
   </set>
  </array>
  <array name="atomtypes" >
   <dimension dim="1">type</dimension>
   <field type="int">atomspertype</field>
   <field type="string">element</field>
   <field>mass</field>
   <field>valence</field>
   <field type="string">pseudopotential</field>
   <set>
    <rc><c>   6</c><c>Ir</c><c>    192.22000000</c><c>      9.00000000</c><c>  PAW_PBE Ir 06Sep2000                  </c></rc>
    <rc><c>  21</c><c>Ce</c><c>    140.11500000</c><c>     12.00000000</c><c>  PAW_PBE Ce 23Dec2003                  </c></rc>
    <rc><c>  72</c><c>O </c><c>     16.00000000</c><c>      6.00000000</c><c>  PAW_PBE O 08Apr2002                   </c></rc>
   </set>
  </array>
 </atominfo>
 <structure name="initialpos" >
  <crystal>
   <varray name="basis" >
    <v>      11.59820000       0.00000000       0.00000000 </v>
    <v>      -5.79910000      10.04433584       0.00000000 </v>
    <v>       0.00000000       0.00000000      21.04820000 </v>
   </varray>
   <i name="volume">   2452.03565189 </i>
   <varray name="rec_basis" >
    <v>       0.08622028       0.04977930       0.00000000 </v>
    <v>       0.00000000       0.09955860       0.00000000 </v>
    <v>       0.00000000       0.00000000       0.04751000 </v>
   </varray>
  </crystal>
  <varray name="positions" >
   <v>       0.01075685       0.98924315       0.44445876 </v>
   <v>       0.64048841       0.02013560       0.46590423 </v>
   <v>       0.97986440       0.35951159       0.46590423 </v>
   <v>       0.34465303       0.32583906       0.44438995 </v>
   <v>       0.31475375       0.68524625       0.45820126 </v>
   <v>       0.67416094       0.65534697       0.44438995 </v>
   <v>       0.22677815       0.10696414       0.30651620 </v>
   <v>       0.11111000       0.22222000       0.15999000 </v>
   <v>       0.33177317       0.00375700       0.46160895 </v>
   <v>       0.55888285       0.11045034       0.31063188 </v>
   <v>       0.44444000       0.22222000       0.15999000 </v>
   <v>       0.89038144       0.10961856       0.31345661 </v>
   <v>       0.77778000       0.22222000       0.15999000 </v>
   <v>       0.22252406       0.44109066       0.31182971 </v>
   <v>       0.11111000       0.55556000       0.15999000 </v>
   <v>       0.55909975       0.44090025       0.30711420 </v>
   <v>       0.44444000       0.55556000       0.15999000 </v>
   <v>       0.67095449       0.32904551       0.46383017 </v>
   <v>       0.88954966       0.44111715       0.31063188 </v>
   <v>       0.77778000       0.55556000       0.15999000 </v>
   <v>       0.99624300       0.66822683       0.46160895 </v>
   <v>       0.22375397       0.77624603       0.31164388 </v>
   <v>       0.11111000       0.88889000       0.15999000 </v>
   <v>       0.55890934       0.77747594       0.31182971 </v>
   <v>       0.44444000       0.88889000       0.15999000 </v>
   <v>       0.89303586       0.77322185       0.30651620 </v>
   <v>       0.77778000       0.88889000       0.15999000 </v>
   <v>       0.00000000       0.00000000       0.12250000 </v>
   <v>       0.00424728       0.99575272       0.52746612 </v>
   <v>       0.10889086       0.22359145       0.27474200 </v>
   <v>       0.19976505       0.13616401       0.43018966 </v>
   <v>       0.11111000       0.22222000       0.04751000 </v>
   <v>       0.06357430       0.27298270       0.48393269 </v>
   <v>       0.00965336       0.99034664       0.34230545 </v>
   <v>       0.22222000       0.11111000       0.19748000 </v>
   <v>       0.33333000       0.00000000       0.12250000 </v>
   <v>       0.32467668       0.99740833       0.55122544 </v>
   <v>       0.44775325       0.21755559       0.27026951 </v>
   <v>       0.55598342       0.10890583       0.42092442 </v>
   <v>       0.44444000       0.22222000       0.04751000 </v>
   <v>       0.44567364       0.24213649       0.43449758 </v>
   <v>       0.33480972       0.00000019       0.34539260 </v>
   <v>       0.55556000       0.11111000       0.19748000 </v>
   <v>       0.66667000       0.00000000       0.12250000 </v>
   <v>       0.59069501       0.05306948       0.53916133 </v>
   <v>       0.78244049       0.21755951       0.27535758 </v>
   <v>       0.92310217       0.07689783       0.42331588 </v>
   <v>       0.77778000       0.22222000       0.04751000 </v>
   <v>       0.79665556       0.20334444       0.45962312 </v>
   <v>       0.67518829       0.00202364       0.36207421 </v>
   <v>       0.88889000       0.11111000       0.19748000 </v>
   <v>       0.00000000       0.33333000       0.12250000 </v>
   <v>       0.94693052       0.40930499       0.53916133 </v>
   <v>       0.11427318       0.55012187       0.27594885 </v>
   <v>       0.25262114       0.40723551       0.42173018 </v>
   <v>       0.11111000       0.55556000       0.04751000 </v>
   <v>       0.13258895       0.53472610       0.44624007 </v>
   <v>       0.99797636       0.32481171       0.36207421 </v>
   <v>       0.22222000       0.44444000       0.19748000 </v>
   <v>       0.33333000       0.33333000       0.12250000 </v>
   <v>       0.33615417       0.32930855       0.52789182 </v>
   <v>       0.44221436       0.55778564       0.27534821 </v>
   <v>       0.51513425       0.48486575       0.42131939 </v>
   <v>       0.44444000       0.55556000       0.04751000 </v>
   <v>       0.39989603       0.60010397       0.49542575 </v>
   <v>       0.33968128       0.32272748       0.34055876 </v>
   <v>       0.55556000       0.44444000       0.19748000 </v>
   <v>       0.66667000       0.33333000       0.12250000 </v>
   <v>       0.66094226       0.33905774       0.55267455 </v>
   <v>       0.78244441       0.55224675       0.27026951 </v>
   <v>       0.89109417       0.44401658       0.42092442 </v>
   <v>       0.77778000       0.55556000       0.04751000 </v>
   <v>       0.75786351       0.55432636       0.43449758 </v>
   <v>       0.66822817       0.33177183       0.34379233 </v>
   <v>       0.88889000       0.44444000       0.19748000 </v>
   <v>       0.00000000       0.66667000       0.12250000 </v>
   <v>       0.00259167       0.67532332       0.55122544 </v>
   <v>       0.11527616       0.88472384       0.27076295 </v>
   <v>       0.22413686       0.77586314       0.42437480 </v>
   <v>       0.11111000       0.88889000       0.04751000 </v>
   <v>       0.10323807       0.89676193       0.43323213 </v>
   <v>       0.99999981       0.66519028       0.34539260 </v>
   <v>       0.22222000       0.77778000       0.19748000 </v>
   <v>       0.33333000       0.66667000       0.12250000 </v>
   <v>       0.29179899       0.70820101       0.54207457 </v>
   <v>       0.44987813       0.88572682       0.27594885 </v>
   <v>       0.59276449       0.74737886       0.42173018 </v>
   <v>       0.44444000       0.88889000       0.04751000 </v>
   <v>       0.46527390       0.86741105       0.44624007 </v>
   <v>       0.33669691       0.66330309       0.35966718 </v>
   <v>       0.55556000       0.77778000       0.19748000 </v>
   <v>       0.66667000       0.66667000       0.12250000 </v>
   <v>       0.67069145       0.66384583       0.52789182 </v>
   <v>       0.77640855       0.89110914       0.27474200 </v>
   <v>       0.86383599       0.80023495       0.43018966 </v>
   <v>       0.77778000       0.88889000       0.04751000 </v>
   <v>       0.72701730       0.93642570       0.48393269 </v>
   <v>       0.67727252       0.66031872       0.34055876 </v>
   <v>       0.88889000       0.77778000       0.19748000 </v>
  </varray>
  <varray name="selective"  type="logical" >
   <v type="logical" >  T  T  T </v>
   <v type="logical" >  T  T  T </v>
   <v type="logical" >  T  T  T </v>
   <v type="logical" >  T  T  T </v>
   <v type="logical" >  T  T  T </v>
   <v type="logical" >  T  T  T </v>
   <v type="logical" >  T  T  T </v>
   <v type="logical" >  F  F  F </v>
   <v type="logical" >  T  T  T </v>
   <v type="logical" >  T  T  T </v>
   <v type="logical" >  F  F  F </v>
   <v type="logical" >  T  T  T </v>
   <v type="logical" >  F  F  F </v>
   <v type="logical" >  T  T  T </v>
   <v type="logical" >  F  F  F </v>
   <v type="logical" >  T  T  T </v>
   <v type="logical" >  F  F  F </v>
   <v type="logical" >  T  T  T </v>
   <v type="logical" >  T  T  T </v>
   <v type="logical" >  F  F  F </v>
   <v type="logical" >  T  T  T </v>
   <v type="logical" >  T  T  T </v>
   <v type="logical" >  F  F  F </v>
   <v type="logical" >  T  T  T </v>
   <v type="logical" >  F  F  F </v>
   <v type="logical" >  T  T  T </v>
   <v type="logical" >  F  F  F </v>
   <v type="logical" >  F  F  F </v>
   <v type="logical" >  T  T  T </v>
   <v type="logical" >  T  T  T </v>
   <v type="logical" >  T  T  T </v>
   <v type="logical" >  F  F  F </v>
   <v type="logical" >  T  T  T </v>
   <v type="logical" >  T  T  T </v>
   <v type="logical" >  F  F  F </v>
   <v type="logical" >  F  F  F </v>
   <v type="logical" >  T  T  T </v>
   <v type="logical" >  T  T  T </v>
   <v type="logical" >  T  T  T </v>
   <v type="logical" >  F  F  F </v>
   <v type="logical" >  T  T  T </v>
   <v type="logical" >  T  T  T </v>
   <v type="logical" >  F  F  F </v>
   <v type="logical" >  F  F  F </v>
   <v type="logical" >  T  T  T </v>
   <v type="logical" >  T  T  T </v>
   <v type="logical" >  T  T  T </v>
   <v type="logical" >  F  F  F </v>
   <v type="logical" >  T  T  T </v>
   <v type="logical" >  T  T  T </v>
   <v type="logical" >  F  F  F </v>
   <v type="logical" >  F  F  F </v>
   <v type="logical" >  T  T  T </v>
   <v type="logical" >  T  T  T </v>
   <v type="logical" >  T  T  T </v>
   <v type="logical" >  F  F  F </v>
   <v type="logical" >  T  T  T </v>
   <v type="logical" >  T  T  T </v>
   <v type="logical" >  F  F  F </v>
   <v type="logical" >  F  F  F </v>
   <v type="logical" >  T  T  T </v>
   <v type="logical" >  T  T  T </v>
   <v type="logical" >  T  T  T </v>
   <v type="logical" >  F  F  F </v>
   <v type="logical" >  T  T  T </v>
   <v type="logical" >  T  T  T </v>
   <v type="logical" >  F  F  F </v>
   <v type="logical" >  F  F  F </v>
   <v type="logical" >  T  T  T </v>
   <v type="logical" >  T  T  T </v>
   <v type="logical" >  T  T  T </v>
   <v type="logical" >  F  F  F </v>
   <v type="logical" >  T  T  T </v>
   <v type="logical" >  T  T  T </v>
   <v type="logical" >  F  F  F </v>
   <v type="logical" >  F  F  F </v>
   <v type="logical" >  T  T  T </v>
   <v type="logical" >  T  T  T </v>
   <v type="logical" >  T  T  T </v>
   <v type="logical" >  F  F  F </v>
   <v type="logical" >  T  T  T </v>
   <v type="logical" >  T  T  T </v>
   <v type="logical" >  F  F  F </v>
   <v type="logical" >  F  F  F </v>
   <v type="logical" >  T  T  T </v>
   <v type="logical" >  T  T  T </v>
   <v type="logical" >  T  T  T </v>
   <v type="logical" >  F  F  F </v>
   <v type="logical" >  T  T  T </v>
   <v type="logical" >  T  T  T </v>
   <v type="logical" >  F  F  F </v>
   <v type="logical" >  F  F  F </v>
   <v type="logical" >  T  T  T </v>
   <v type="logical" >  T  T  T </v>
   <v type="logical" >  T  T  T </v>
   <v type="logical" >  F  F  F </v>
   <v type="logical" >  T  T  T </v>
   <v type="logical" >  T  T  T </v>
   <v type="logical" >  F  F  F </v>
  </varray>
  <nose>
   <v>      -3.00000000       0.00000000       0.00010000       0.00010000 </v>
  </nose>
 </structure>
 <calculation>
  <scstep>
   <time name="dav">   17.08   17.12</time>
   <time name="total">   18.59   18.68</time>
   <energy>
    <i name="alphaZ">   1839.19756306 </i>
    <i name="ewald"> 135640.65804657 </i>
    <i name="hartreedc">-188519.68473947 </i>
    <i name="XCdc">   1995.59521339 </i>
    <i name="pawpsdc">  46122.55799334 </i>
    <i name="pawaedc"> -45467.04419015 </i>
    <i name="eentropy">     -0.03703182 </i>
    <i name="bandstr">   3243.05645273 </i>
    <i name="atom">  56815.39572979 </i>
    <i name="e_fr_energy">  11669.69503742 </i>
    <i name="e_wo_entrp">  11669.73206924 </i>
    <i name="e_0_energy">  11669.71355333 </i>
   </energy>
  </scstep>
  <scstep>
   <time name="dav">   18.57   18.58</time>
   <time name="total">   18.57   18.58</time>
   <energy>
    <i name="e_fr_energy">   3037.82065127 </i>
    <i name="e_wo_entrp">   3037.99024594 </i>
    <i name="e_0_energy">   3037.90544860 </i>
   </energy>
  </scstep>
  <scstep>
   <time name="dav">   22.22   22.23</time>
   <time name="total">   22.22   22.23</time>
   <energy>
    <i name="e_fr_energy">   -393.35715921 </i>
    <i name="e_wo_entrp">   -393.34825969 </i>
    <i name="e_0_energy">   -393.35270945 </i>
   </energy>
  </scstep>
  <scstep>
   <time name="dav">   24.23   24.25</time>
   <time name="total">   24.24   24.25</time>
   <energy>
    <i name="e_fr_energy">   -887.05354190 </i>
    <i name="e_wo_entrp">   -886.99153204 </i>
    <i name="e_0_energy">   -887.02253697 </i>
   </energy>
  </scstep>
  <scstep>
   <time name="dav">   26.39   26.41</time>
   <time name="total">   27.81   27.83</time>
   <energy>
    <i name="e_fr_energy">   -907.50545344 </i>
    <i name="e_wo_entrp">   -907.35374460 </i>
    <i name="e_0_energy">   -907.42959902 </i>
   </energy>
  </scstep>
  <scstep>
   <time name="dav">   26.85   26.86</time>
   <time name="total">   29.72   29.74</time>
   <energy>
    <i name="e_fr_energy">  -1249.26191524 </i>
    <i name="e_wo_entrp">  -1249.08302688 </i>
    <i name="e_0_energy">  -1249.17247106 </i>
   </energy>
  </scstep>
  <scstep>
   <time name="dav">   24.10   24.11</time>
   <time name="total">   26.89   26.91</time>
   <energy>
    <i name="e_fr_energy">  -1546.15959907 </i>
    <i name="e_wo_entrp">  -1545.94746444 </i>
    <i name="e_0_energy">  -1546.05353175 </i>
   </energy>
  </scstep>
  <scstep>
   <time name="dav">   23.81   23.82</time>
   <time name="total">   26.60   26.62</time>
   <energy>
    <i name="e_fr_energy">  -1874.41438197 </i>
    <i name="e_wo_entrp">  -1874.35760743 </i>
    <i name="e_0_energy">  -1874.38599470 </i>
   </energy>
  </scstep>
  <scstep>
   <time name="dav">   23.13   23.14</time>
   <time name="total">   25.95   25.97</time>
   <energy>
    <i name="e_fr_energy">  -1188.15881465 </i>
    <i name="e_wo_entrp">  -1188.04303841 </i>
    <i name="e_0_energy">  -1188.10092653 </i>
   </energy>
  </scstep>
  <scstep>
   <time name="dav">   23.51   23.52</time>
   <time name="total">   26.33   26.34</time>
   <energy>
    <i name="e_fr_energy">  -1037.72692506 </i>
    <i name="e_wo_entrp">  -1037.63701303 </i>
    <i name="e_0_energy">  -1037.68196904 </i>
   </energy>
  </scstep>
  <scstep>
   <time name="dav">   27.88   27.90</time>
   <time name="total">   30.69   30.71</time>
   <energy>
    <i name="e_fr_energy">   -829.49455045 </i>
    <i name="e_wo_entrp">   -829.38981214 </i>
    <i name="e_0_energy">   -829.44218130 </i>
   </energy>
  </scstep>
  <scstep>
   <time name="dav">   27.24   27.25</time>
   <time name="total">   30.05   30.07</time>
   <energy>
    <i name="e_fr_energy">   -919.29919441 </i>
    <i name="e_wo_entrp">   -919.16602655 </i>
    <i name="e_0_energy">   -919.23261048 </i>
   </energy>
  </scstep>
  <scstep>
   <time name="dav">   26.06   26.08</time>
   <time name="total">   28.88   28.90</time>
   <energy>
    <i name="e_fr_energy">   -850.10220077 </i>
    <i name="e_wo_entrp">   -849.96196260 </i>
    <i name="e_0_energy">   -850.03208168 </i>
   </energy>
  </scstep>
  <scstep>
   <time name="dav">   23.47   23.48</time>
   <time name="total">   26.31   26.33</time>
   <energy>
    <i name="e_fr_energy">   -868.09869426 </i>
    <i name="e_wo_entrp">   -868.01767265 </i>
    <i name="e_0_energy">   -868.05818346 </i>
   </energy>
  </scstep>
  <scstep>
   <time name="dav">   22.54   22.55</time>
   <time name="total">   25.34   25.36</time>
   <energy>
    <i name="e_fr_energy">   -732.66528985 </i>
    <i name="e_wo_entrp">   -732.63732732 </i>
    <i name="e_0_energy">   -732.65130859 </i>
   </energy>
  </scstep>
  <scstep>
   <time name="dav">   26.09   26.11</time>
   <time name="total">   28.91   28.92</time>
   <energy>
    <i name="e_fr_energy">   -728.13366240 </i>
    <i name="e_wo_entrp">   -728.07623904 </i>
    <i name="e_0_energy">   -728.10495072 </i>
   </energy>
  </scstep>
  <scstep>
   <time name="dav">   23.97   23.98</time>
   <time name="total">   26.77   26.79</time>
   <energy>
    <i name="e_fr_energy">   -706.37473464 </i>
    <i name="e_wo_entrp">   -706.27591518 </i>
    <i name="e_0_energy">   -706.32532491 </i>
   </energy>
  </scstep>
  <scstep>
   <time name="dav">   24.99   25.01</time>
   <time name="total">   27.78   27.80</time>
   <energy>
    <i name="e_fr_energy">   -703.42715540 </i>
    <i name="e_wo_entrp">   -703.38516315 </i>
    <i name="e_0_energy">   -703.40615928 </i>
   </energy>
  </scstep>
  <scstep>
   <time name="dav">   26.25   26.26</time>
   <time name="total">   29.05   29.07</time>
   <energy>
    <i name="e_fr_energy">   -699.48117321 </i>
    <i name="e_wo_entrp">   -699.37787109 </i>
    <i name="e_0_energy">   -699.42952215 </i>
   </energy>
  </scstep>
  <scstep>
   <time name="dav">   26.03   26.04</time>
   <time name="total">   28.90   28.92</time>
   <energy>
    <i name="e_fr_energy">   -686.02404856 </i>
    <i name="e_wo_entrp">   -685.93098581 </i>
    <i name="e_0_energy">   -685.97751719 </i>
   </energy>
  </scstep>
  <scstep>
   <time name="dav">   27.27   27.28</time>
   <time name="total">   30.08   30.10</time>
   <energy>
    <i name="e_fr_energy">   -686.91403290 </i>
    <i name="e_wo_entrp">   -686.82953789 </i>
    <i name="e_0_energy">   -686.87178539 </i>
   </energy>
  </scstep>
  <scstep>
   <time name="dav">   27.51   27.52</time>
   <time name="total">   30.36   30.37</time>
   <energy>
    <i name="e_fr_energy">   -686.80354150 </i>
    <i name="e_wo_entrp">   -686.71913094 </i>
    <i name="e_0_energy">   -686.76133622 </i>
   </energy>
  </scstep>
  <scstep>
   <time name="dav">   25.95   25.96</time>
   <time name="total">   28.74   28.75</time>
   <energy>
    <i name="e_fr_energy">   -685.91444808 </i>
    <i name="e_wo_entrp">   -685.83186958 </i>
    <i name="e_0_energy">   -685.87315883 </i>
   </energy>
  </scstep>
  <scstep>
   <time name="dav">   23.76   23.77</time>
   <time name="total">   26.60   26.62</time>
   <energy>
    <i name="e_fr_energy">   -686.50829539 </i>
    <i name="e_wo_entrp">   -686.41573837 </i>
    <i name="e_0_energy">   -686.46201688 </i>
   </energy>
  </scstep>
  <scstep>
   <time name="dav">   26.16   26.17</time>
   <time name="total">   29.02   29.04</time>
   <energy>
    <i name="e_fr_energy">   -678.62559110 </i>
    <i name="e_wo_entrp">   -678.54036202 </i>
    <i name="e_0_energy">   -678.58297656 </i>
   </energy>
  </scstep>
  <scstep>
   <time name="dav">   22.85   22.86</time>
   <time name="total">   25.70   25.71</time>
   <energy>
    <i name="e_fr_energy">   -671.22085406 </i>
    <i name="e_wo_entrp">   -671.14806436 </i>
    <i name="e_0_energy">   -671.18445921 </i>
   </energy>
  </scstep>
  <scstep>
   <time name="dav">   28.36   28.38</time>
   <time name="total">   31.19   31.21</time>
   <energy>
    <i name="e_fr_energy">   -672.05559092 </i>
    <i name="e_wo_entrp">   -671.98587173 </i>
    <i name="e_0_energy">   -672.02073132 </i>
   </energy>
  </scstep>
  <scstep>
   <time name="dav">   27.44   27.45</time>
   <time name="total">   30.29   30.30</time>
   <energy>
    <i name="e_fr_energy">   -672.21771356 </i>
    <i name="e_wo_entrp">   -672.15056788 </i>
    <i name="e_0_energy">   -672.18414072 </i>
   </energy>
  </scstep>
  <scstep>
   <time name="dav">   25.95   25.96</time>
   <time name="total">   28.77   28.84</time>
   <energy>
    <i name="e_fr_energy">   -672.14033624 </i>
    <i name="e_wo_entrp">   -672.07448188 </i>
    <i name="e_0_energy">   -672.10740906 </i>
   </energy>
  </scstep>
  <scstep>
   <time name="dav">   28.67   28.69</time>
   <time name="total">   31.48   31.53</time>
   <energy>
    <i name="e_fr_energy">   -672.18194349 </i>
    <i name="e_wo_entrp">   -672.11623234 </i>
    <i name="e_0_energy">   -672.14908791 </i>
   </energy>
  </scstep>
  <scstep>
   <time name="dav">   28.68   28.69</time>
   <time name="total">   31.51   31.54</time>
   <energy>
    <i name="e_fr_energy">   -672.14945663 </i>
    <i name="e_wo_entrp">   -672.08603955 </i>
    <i name="e_0_energy">   -672.11774809 </i>
   </energy>
  </scstep>
  <scstep>
   <time name="dav">   26.62   26.64</time>
   <time name="total">   29.46   29.52</time>
   <energy>
    <i name="e_fr_energy">   -672.23630927 </i>
    <i name="e_wo_entrp">   -672.17298308 </i>
    <i name="e_0_energy">   -672.20464618 </i>
   </energy>
  </scstep>
  <scstep>
   <time name="dav">   26.46   26.47</time>
   <time name="total">   29.30   29.33</time>
   <energy>
    <i name="e_fr_energy">   -672.92069556 </i>
    <i name="e_wo_entrp">   -672.84543084 </i>
    <i name="e_0_energy">   -672.88306320 </i>
   </energy>
  </scstep>
  <scstep>
   <time name="dav">   26.70   26.72</time>
   <time name="total">   29.56   29.57</time>
   <energy>
    <i name="e_fr_energy">   -671.33042113 </i>
    <i name="e_wo_entrp">   -671.25298294 </i>
    <i name="e_0_energy">   -671.29170204 </i>
   </energy>
  </scstep>
  <scstep>
   <time name="dav">   26.12   26.14</time>
   <time name="total">   28.96   28.97</time>
   <energy>
    <i name="e_fr_energy">   -671.41681554 </i>
    <i name="e_wo_entrp">   -671.34682845 </i>
    <i name="e_0_energy">   -671.38182200 </i>
   </energy>
  </scstep>
  <scstep>
   <time name="dav">   27.79   27.81</time>
   <time name="total">   30.62   30.64</time>
   <energy>
    <i name="e_fr_energy">   -672.21741767 </i>
    <i name="e_wo_entrp">   -672.14911174 </i>
    <i name="e_0_energy">   -672.18326471 </i>
   </energy>
  </scstep>
  <scstep>
   <time name="dav">   23.08   23.09</time>
   <time name="total">   25.89   25.90</time>
   <energy>
    <i name="e_fr_energy">   -672.24002618 </i>
    <i name="e_wo_entrp">   -672.17196587 </i>
    <i name="e_0_energy">   -672.20599602 </i>
   </energy>
  </scstep>
  <scstep>
   <time name="dav">   26.54   26.55</time>
   <time name="total">   29.37   29.38</time>
   <energy>
    <i name="e_fr_energy">   -672.55747444 </i>
    <i name="e_wo_entrp">   -672.48941947 </i>
    <i name="e_0_energy">   -672.52344696 </i>
   </energy>
  </scstep>
  <scstep>
   <time name="dav">   26.35   26.37</time>
   <time name="total">   29.18   29.20</time>
   <energy>
    <i name="e_fr_energy">   -672.67057653 </i>
    <i name="e_wo_entrp">   -672.60267135 </i>
    <i name="e_0_energy">   -672.63662394 </i>
   </energy>
  </scstep>
  <scstep>
   <time name="dav">   26.86   26.88</time>
   <time name="total">   29.74   29.75</time>
   <energy>
    <i name="e_fr_energy">   -672.51641121 </i>
    <i name="e_wo_entrp">   -672.44887601 </i>
    <i name="e_0_energy">   -672.48264361 </i>
   </energy>
  </scstep>
  <scstep>
   <time name="dav">   27.60   27.62</time>
   <time name="total">   30.45   30.46</time>
   <energy>
    <i name="e_fr_energy">   -672.51858616 </i>
    <i name="e_wo_entrp">   -672.44949382 </i>
    <i name="e_0_energy">   -672.48403999 </i>
   </energy>
  </scstep>
  <scstep>
   <time name="dav">   26.16   26.17</time>
   <time name="total">   29.02   29.04</time>
   <energy>
    <i name="e_fr_energy">   -671.97502622 </i>
    <i name="e_wo_entrp">   -671.90443910 </i>
    <i name="e_0_energy">   -671.93973266 </i>
   </energy>
  </scstep>
  <scstep>
   <time name="dav">   26.96   26.97</time>
   <time name="total">   29.82   29.83</time>
   <energy>
    <i name="e_fr_energy">   -672.64699715 </i>
    <i name="e_wo_entrp">   -672.57493681 </i>
    <i name="e_0_energy">   -672.61096698 </i>
   </energy>
  </scstep>
  <scstep>
   <time name="dav">   24.90   24.92</time>
   <time name="total">   27.72   27.74</time>
   <energy>
    <i name="e_fr_energy">   -672.62828331 </i>
    <i name="e_wo_entrp">   -672.55726239 </i>
    <i name="e_0_energy">   -672.59277285 </i>
   </energy>
  </scstep>
  <scstep>
   <time name="dav">   25.87   25.88</time>
   <time name="total">   28.71   28.73</time>
   <energy>
    <i name="e_fr_energy">   -673.49484937 </i>
    <i name="e_wo_entrp">   -673.41861753 </i>
    <i name="e_0_energy">   -673.45673345 </i>
   </energy>
  </scstep>
  <scstep>
   <time name="dav">   25.48   25.49</time>
   <time name="total">   28.30   28.32</time>
   <energy>
    <i name="e_fr_energy">   -673.55794257 </i>
    <i name="e_wo_entrp">   -673.48167233 </i>
    <i name="e_0_energy">   -673.51980745 </i>
   </energy>
  </scstep>
  <scstep>
   <time name="dav">   29.41   29.43</time>
   <time name="total">   32.24   32.26</time>
   <energy>
    <i name="e_fr_energy">   -673.69140916 </i>
    <i name="e_wo_entrp">   -673.61487445 </i>
    <i name="e_0_energy">   -673.65314180 </i>
   </energy>
  </scstep>
  <scstep>
   <time name="dav">   27.24   27.25</time>
   <time name="total">   30.06   30.08</time>
   <energy>
    <i name="e_fr_energy">   -673.05792132 </i>
    <i name="e_wo_entrp">   -672.98102045 </i>
    <i name="e_0_energy">   -673.01947088 </i>
   </energy>
  </scstep>
  <scstep>
   <time name="dav">   28.53   28.55</time>
   <time name="total">   31.35   31.36</time>
   <energy>
    <i name="e_fr_energy">   -673.75717522 </i>
    <i name="e_wo_entrp">   -673.67697335 </i>
    <i name="e_0_energy">   -673.71707429 </i>
   </energy>
  </scstep>
  <scstep>
   <time name="dav">   26.52   26.54</time>
   <time name="total">   29.34   29.36</time>
   <energy>
    <i name="e_fr_energy">   -674.03186439 </i>
    <i name="e_wo_entrp">   -673.95090904 </i>
    <i name="e_0_energy">   -673.99138672 </i>
   </energy>
  </scstep>
  <scstep>
   <time name="dav">   25.04   25.06</time>
   <time name="total">   27.93   27.94</time>
   <energy>
    <i name="e_fr_energy">   -642.17387645 </i>
    <i name="e_wo_entrp">   -642.07205543 </i>
    <i name="e_0_energy">   -642.12296594 </i>
   </energy>
  </scstep>
  <scstep>
   <time name="dav">   25.98   25.99</time>
   <time name="total">   28.80   28.81</time>
   <energy>
    <i name="e_fr_energy">   -602.51999627 </i>
    <i name="e_wo_entrp">   -602.43796937 </i>
    <i name="e_0_energy">   -602.47898282 </i>
   </energy>
  </scstep>
  <scstep>
   <time name="dav">   24.45   24.46</time>
   <time name="total">   27.29   27.31</time>
   <energy>
    <i name="e_fr_energy">   -612.91311508 </i>
    <i name="e_wo_entrp">   -612.86302355 </i>
    <i name="e_0_energy">   -612.88806931 </i>
   </energy>
  </scstep>
  <scstep>
   <time name="dav">   26.43   26.45</time>
   <time name="total">   29.24   29.26</time>
   <energy>
    <i name="e_fr_energy">   -626.08629151 </i>
    <i name="e_wo_entrp">   -626.01260445 </i>
    <i name="e_0_energy">   -626.04944798 </i>
   </energy>
  </scstep>
  <scstep>
   <time name="dav">   27.29   27.30</time>
   <time name="total">   30.09   30.11</time>
   <energy>
    <i name="e_fr_energy">   -636.48285548 </i>
    <i name="e_wo_entrp">   -636.39767376 </i>
    <i name="e_0_energy">   -636.44026462 </i>
   </energy>
  </scstep>
  <scstep>
   <time name="dav">   25.90   25.91</time>
   <time name="total">   28.75   28.77</time>
   <energy>
    <i name="e_fr_energy">   -640.39496545 </i>
    <i name="e_wo_entrp">   -640.29832216 </i>
    <i name="e_0_energy">   -640.34664380 </i>
   </energy>
  </scstep>
  <scstep>
   <time name="dav">   24.86   24.87</time>
   <time name="total">   27.70   27.72</time>
   <energy>
    <i name="e_fr_energy">   -617.04082241 </i>
    <i name="e_wo_entrp">   -616.97532464 </i>
    <i name="e_0_energy">   -617.00807353 </i>
   </energy>
  </scstep>
  <scstep>
   <time name="dav">   24.43   24.44</time>
   <time name="total">   27.31   27.33</time>
   <energy>
    <i name="e_fr_energy">   -622.22394780 </i>
    <i name="e_wo_entrp">   -622.16702465 </i>
    <i name="e_0_energy">   -622.19548622 </i>
   </energy>
  </scstep>
  <scstep>
   <time name="dav">   24.06   24.08</time>
   <time name="total">   26.84   26.86</time>
   <energy>
    <i name="e_fr_energy">   -602.27486407 </i>
    <i name="e_wo_entrp">   -602.22510463 </i>
    <i name="e_0_energy">   -602.24998435 </i>
   </energy>
  </scstep>
  <scstep>
   <time name="dav">   26.05   26.06</time>
   <time name="total">   28.87   28.89</time>
   <energy>
    <i name="e_fr_energy">   -570.39216394 </i>
    <i name="e_wo_entrp">   -570.33144840 </i>
    <i name="e_0_energy">   -570.36180617 </i>
   </energy>
  </scstep>
  <scstep>
   <time name="dav">   23.91   23.92</time>
   <time name="total">   26.74   26.75</time>
   <energy>
    <i name="e_fr_energy">   -506.89884911 </i>
    <i name="e_wo_entrp">   -506.87324325 </i>
    <i name="e_0_energy">   -506.88604618 </i>
   </energy>
  </scstep>
  <scstep>
   <time name="dav">   25.22   25.23</time>
   <time name="total">   28.08   28.09</time>
   <energy>
    <i name="e_fr_energy">   -421.57953241 </i>
    <i name="e_wo_entrp">   -421.55031307 </i>
    <i name="e_0_energy">   -421.56492274 </i>
   </energy>
  </scstep>
  <scstep>
   <time name="dav">   26.28   26.29</time>
   <time name="total">   29.12   29.13</time>
   <energy>
    <i name="e_fr_energy">   -410.65832363 </i>
    <i name="e_wo_entrp">   -410.63417986 </i>
    <i name="e_0_energy">   -410.64625175 </i>
   </energy>
  </scstep>
  <scstep>
   <time name="dav">   27.85   27.86</time>
   <time name="total">   30.73   30.75</time>
   <energy>
    <i name="e_fr_energy">   -396.25758612 </i>
    <i name="e_wo_entrp">   -396.23026797 </i>
    <i name="e_0_energy">   -396.24392704 </i>
   </energy>
  </scstep>
  <scstep>
   <time name="dav">   25.90   25.92</time>
   <time name="total">   28.74   28.76</time>
   <energy>
    <i name="e_fr_energy">   -414.50036363 </i>
    <i name="e_wo_entrp">   -414.46978668 </i>
    <i name="e_0_energy">   -414.48507516 </i>
   </energy>
  </scstep>
  <scstep>
   <time name="dav">   25.58   25.59</time>
   <time name="total">   28.44   28.46</time>
   <energy>
    <i name="e_fr_energy">   -439.25742567 </i>
    <i name="e_wo_entrp">   -439.21979672 </i>
    <i name="e_0_energy">   -439.23861120 </i>
   </energy>
  </scstep>
  <scstep>
   <time name="dav">   26.30   26.32</time>
   <time name="total">   29.11   29.13</time>
   <energy>
    <i name="e_fr_energy">   -441.52430649 </i>
    <i name="e_wo_entrp">   -441.48296195 </i>
    <i name="e_0_energy">   -441.50363422 </i>
   </energy>
  </scstep>
  <scstep>
   <time name="dav">   23.60   23.61</time>
   <time name="total">   26.44   26.45</time>
   <energy>
    <i name="e_fr_energy">   -437.75914232 </i>
    <i name="e_wo_entrp">   -437.70624586 </i>
    <i name="e_0_energy">   -437.73269409 </i>
   </energy>
  </scstep>
  <scstep>
   <time name="dav">   25.13   25.15</time>
   <time name="total">   27.97   27.99</time>
   <energy>
    <i name="e_fr_energy">   -436.80624597 </i>
    <i name="e_wo_entrp">   -436.75866641 </i>
    <i name="e_0_energy">   -436.78245619 </i>
   </energy>
  </scstep>
  <scstep>
   <time name="dav">   23.80   23.81</time>
   <time name="total">   26.59   26.60</time>
   <energy>
    <i name="e_fr_energy">   -443.55505231 </i>
    <i name="e_wo_entrp">   -443.50929318 </i>
    <i name="e_0_energy">   -443.53217275 </i>
   </energy>
  </scstep>
  <scstep>
   <time name="dav">   25.07   25.08</time>
   <time name="total">   27.89   27.90</time>
   <energy>
    <i name="e_fr_energy">   -553.94709818 </i>
    <i name="e_wo_entrp">   -553.90123976 </i>
    <i name="e_0_energy">   -553.92416897 </i>
   </energy>
  </scstep>
  <scstep>
   <time name="dav">   26.50   26.52</time>
   <time name="total">   29.32   29.34</time>
   <energy>
    <i name="e_fr_energy">   -497.63712528 </i>
    <i name="e_wo_entrp">   -497.59345389 </i>
    <i name="e_0_energy">   -497.61528959 </i>
   </energy>
  </scstep>
  <scstep>
   <time name="dav">   25.81   25.83</time>
   <time name="total">   28.69   28.70</time>
   <energy>
    <i name="e_fr_energy">   -438.30853042 </i>
    <i name="e_wo_entrp">   -438.28448624 </i>
    <i name="e_0_energy">   -438.29650833 </i>
   </energy>
  </scstep>
  <scstep>
   <time name="dav">   26.38   26.40</time>
   <time name="total">   29.25   29.27</time>
   <energy>
    <i name="e_fr_energy">   -439.08840889 </i>
    <i name="e_wo_entrp">   -439.04237110 </i>
    <i name="e_0_energy">   -439.06538999 </i>
   </energy>
  </scstep>
  <scstep>
   <time name="dav">   26.57   26.59</time>
   <time name="total">   29.42   29.44</time>
   <energy>
    <i name="e_fr_energy">   -461.53792538 </i>
    <i name="e_wo_entrp">   -461.49982290 </i>
    <i name="e_0_energy">   -461.51887414 </i>
   </energy>
  </scstep>
  <scstep>
   <time name="dav">   25.00   25.01</time>
   <time name="total">   27.81   27.82</time>
   <energy>
    <i name="e_fr_energy">   -636.55859331 </i>
    <i name="e_wo_entrp">   -636.49812181 </i>
    <i name="e_0_energy">   -636.52835756 </i>
   </energy>
  </scstep>
  <scstep>
   <time name="dav">   26.77   26.78</time>
   <time name="total">   29.60   29.62</time>
   <energy>
    <i name="e_fr_energy">   -634.92701723 </i>
    <i name="e_wo_entrp">   -634.89335420 </i>
    <i name="e_0_energy">   -634.91018571 </i>
   </energy>
  </scstep>
  <scstep>
   <time name="dav">   26.72   26.73</time>
   <time name="total">   29.52   29.53</time>
   <energy>
    <i name="e_fr_energy">   -623.88868562 </i>
    <i name="e_wo_entrp">   -623.86536996 </i>
    <i name="e_0_energy">   -623.87702779 </i>
   </energy>
  </scstep>
  <scstep>
   <time name="dav">   25.57   25.58</time>
   <time name="total">   28.40   28.41</time>
   <energy>
    <i name="e_fr_energy">   -619.47391974 </i>
    <i name="e_wo_entrp">   -619.43837689 </i>
    <i name="e_0_energy">   -619.45614832 </i>
   </energy>
  </scstep>
  <scstep>
   <time name="dav">   24.82   24.84</time>
   <time name="total">   27.64   27.65</time>
   <energy>
    <i name="e_fr_energy">   -620.33491397 </i>
    <i name="e_wo_entrp">   -620.30467639 </i>
    <i name="e_0_energy">   -620.31979518 </i>
   </energy>
  </scstep>
  <scstep>
   <time name="dav">   24.88   24.90</time>
   <time name="total">   27.67   27.69</time>
   <energy>
    <i name="e_fr_energy">   -622.17679717 </i>
    <i name="e_wo_entrp">   -622.13464781 </i>
    <i name="e_0_energy">   -622.15572249 </i>
   </energy>
  </scstep>
  <scstep>
   <time name="dav">   26.41   26.42</time>
   <time name="total">   29.18   29.20</time>
   <energy>
    <i name="e_fr_energy">   -609.37776166 </i>
    <i name="e_wo_entrp">   -609.36015748 </i>
    <i name="e_0_energy">   -609.36895957 </i>
   </energy>
  </scstep>
  <scstep>
   <time name="dav">   24.99   25.01</time>
   <time name="total">   27.80   27.82</time>
   <energy>
    <i name="e_fr_energy">   -605.14185299 </i>
    <i name="e_wo_entrp">   -605.11552168 </i>
    <i name="e_0_energy">   -605.12868733 </i>
   </energy>
  </scstep>
  <scstep>
   <time name="dav">   22.40   22.41</time>
   <time name="total">   25.20   25.21</time>
   <energy>
    <i name="e_fr_energy">   -605.24290597 </i>
    <i name="e_wo_entrp">   -605.21677441 </i>
    <i name="e_0_energy">   -605.22984019 </i>
   </energy>
  </scstep>
  <scstep>
   <time name="dav">   29.58   29.60</time>
   <time name="total">   32.37   32.39</time>
   <energy>
    <i name="e_fr_energy">   -605.56333055 </i>
    <i name="e_wo_entrp">   -605.53705318 </i>
    <i name="e_0_energy">   -605.55019186 </i>
   </energy>
  </scstep>
  <scstep>
   <time name="dav">   25.00   25.01</time>
   <time name="total">   27.83   27.84</time>
   <energy>
    <i name="e_fr_energy">   -635.87789834 </i>
    <i name="e_wo_entrp">   -635.84491102 </i>
    <i name="e_0_energy">   -635.86140468 </i>
   </energy>
  </scstep>
  <scstep>
   <time name="dav">   26.40   26.41</time>
   <time name="total">   29.23   29.25</time>
   <energy>
    <i name="e_fr_energy">   -618.57601879 </i>
    <i name="e_wo_entrp">   -618.54439130 </i>
    <i name="e_0_energy">   -618.56020504 </i>
   </energy>
  </scstep>
  <scstep>
   <time name="dav">   23.32   23.34</time>
   <time name="total">   26.15   26.16</time>
   <energy>
    <i name="e_fr_energy">   -614.28620369 </i>
    <i name="e_wo_entrp">   -614.25117546 </i>
    <i name="e_0_energy">   -614.26868958 </i>
   </energy>
  </scstep>
  <scstep>
   <time name="dav">   24.50   24.52</time>
   <time name="total">   27.35   27.36</time>
   <energy>
    <i name="e_fr_energy">   -612.43988387 </i>
    <i name="e_wo_entrp">   -612.40766929 </i>
    <i name="e_0_energy">   -612.42377658 </i>
   </energy>
  </scstep>
  <scstep>
   <time name="dav">   26.64   26.65</time>
   <time name="total">   28.08   28.10</time>
   <energy>
    <i name="alphaZ">   1839.19756306 </i>
    <i name="ewald"> 135640.65804657 </i>
    <i name="hartreedc">-189719.95128823 </i>
    <i name="XCdc">   2066.43167335 </i>
    <i name="pawpsdc">  57868.44955566 </i>
    <i name="pawaedc"> -57136.97473081 </i>
    <i name="eentropy">     -0.03513317 </i>
    <i name="bandstr">  -7982.66264658 </i>
    <i name="atom">  56815.39572979 </i>
    <i name="e_fr_energy">   -609.49123036 </i>
    <i name="e_wo_entrp">   -609.45609719 </i>
    <i name="e_0_energy">   -609.47366378 </i>
   </energy>
  </scstep>
  <structure>
   <crystal>
    <varray name="basis" >
     <v>      11.59820000       0.00000000       0.00000000 </v>
     <v>      -5.79910000      10.04433584       0.00000000 </v>
     <v>       0.00000000       0.00000000      21.04820000 </v>
    </varray>
    <i name="volume">   2452.03565189 </i>
    <varray name="rec_basis" >
     <v>       0.08622028       0.04977930       0.00000000 </v>
     <v>       0.00000000       0.09955860       0.00000000 </v>
     <v>       0.00000000       0.00000000       0.04751000 </v>
    </varray>
   </crystal>
   <varray name="positions" >
    <v>       0.01075685       0.98924315       0.44445876 </v>
    <v>       0.64048841       0.02013560       0.46590423 </v>
    <v>       0.97986440       0.35951159       0.46590423 </v>
    <v>       0.34465303       0.32583906       0.44438995 </v>
    <v>       0.31475375       0.68524625       0.45820126 </v>
    <v>       0.67416094       0.65534697       0.44438995 </v>
    <v>       0.22677815       0.10696414       0.30651620 </v>
    <v>       0.11111000       0.22222000       0.15999000 </v>
    <v>       0.33177317       0.00375700       0.46160895 </v>
    <v>       0.55888285       0.11045034       0.31063188 </v>
    <v>       0.44444000       0.22222000       0.15999000 </v>
    <v>       0.89038144       0.10961856       0.31345661 </v>
    <v>       0.77778000       0.22222000       0.15999000 </v>
    <v>       0.22252406       0.44109066       0.31182971 </v>
    <v>       0.11111000       0.55556000       0.15999000 </v>
    <v>       0.55909975       0.44090025       0.30711420 </v>
    <v>       0.44444000       0.55556000       0.15999000 </v>
    <v>       0.67095449       0.32904551       0.46383017 </v>
    <v>       0.88954966       0.44111715       0.31063188 </v>
    <v>       0.77778000       0.55556000       0.15999000 </v>
    <v>       0.99624300       0.66822683       0.46160895 </v>
    <v>       0.22375397       0.77624603       0.31164388 </v>
    <v>       0.11111000       0.88889000       0.15999000 </v>
    <v>       0.55890934       0.77747594       0.31182971 </v>
    <v>       0.44444000       0.88889000       0.15999000 </v>
    <v>       0.89303586       0.77322185       0.30651620 </v>
    <v>       0.77778000       0.88889000       0.15999000 </v>
    <v>       0.00000000       0.00000000       0.12250000 </v>
    <v>       0.00424728       0.99575272       0.52746612 </v>
    <v>       0.10889086       0.22359145       0.27474200 </v>
    <v>       0.19976505       0.13616401       0.43018966 </v>
    <v>       0.11111000       0.22222000       0.04751000 </v>
    <v>       0.06357430       0.27298270       0.48393269 </v>
    <v>       0.00965336       0.99034664       0.34230545 </v>
    <v>       0.22222000       0.11111000       0.19748000 </v>
    <v>       0.33333000       0.00000000       0.12250000 </v>
    <v>       0.32467668       0.99740833       0.55122544 </v>
    <v>       0.44775325       0.21755559       0.27026951 </v>
    <v>       0.55598342       0.10890583       0.42092442 </v>
    <v>       0.44444000       0.22222000       0.04751000 </v>
    <v>       0.44567364       0.24213649       0.43449758 </v>
    <v>       0.33480972       0.00000019       0.34539260 </v>
    <v>       0.55556000       0.11111000       0.19748000 </v>
    <v>       0.66667000       0.00000000       0.12250000 </v>
    <v>       0.59069501       0.05306948       0.53916133 </v>
    <v>       0.78244049       0.21755951       0.27535758 </v>
    <v>       0.92310217       0.07689783       0.42331588 </v>
    <v>       0.77778000       0.22222000       0.04751000 </v>
    <v>       0.79665556       0.20334444       0.45962312 </v>
    <v>       0.67518829       0.00202364       0.36207421 </v>
    <v>       0.88889000       0.11111000       0.19748000 </v>
    <v>       0.00000000       0.33333000       0.12250000 </v>
    <v>       0.94693052       0.40930499       0.53916133 </v>
    <v>       0.11427318       0.55012187       0.27594885 </v>
    <v>       0.25262114       0.40723551       0.42173018 </v>
    <v>       0.11111000       0.55556000       0.04751000 </v>
    <v>       0.13258895       0.53472610       0.44624007 </v>
    <v>       0.99797636       0.32481171       0.36207421 </v>
    <v>       0.22222000       0.44444000       0.19748000 </v>
    <v>       0.33333000       0.33333000       0.12250000 </v>
    <v>       0.33615417       0.32930855       0.52789182 </v>
    <v>       0.44221436       0.55778564       0.27534821 </v>
    <v>       0.51513425       0.48486575       0.42131939 </v>
    <v>       0.44444000       0.55556000       0.04751000 </v>
    <v>       0.39989603       0.60010397       0.49542575 </v>
    <v>       0.33968128       0.32272748       0.34055876 </v>
    <v>       0.55556000       0.44444000       0.19748000 </v>
    <v>       0.66667000       0.33333000       0.12250000 </v>
    <v>       0.66094226       0.33905774       0.55267455 </v>
    <v>       0.78244441       0.55224675       0.27026951 </v>
    <v>       0.89109417       0.44401658       0.42092442 </v>
    <v>       0.77778000       0.55556000       0.04751000 </v>
    <v>       0.75786351       0.55432636       0.43449758 </v>
    <v>       0.66822817       0.33177183       0.34379233 </v>
    <v>       0.88889000       0.44444000       0.19748000 </v>
    <v>       0.00000000       0.66667000       0.12250000 </v>
    <v>       0.00259167       0.67532332       0.55122544 </v>
    <v>       0.11527616       0.88472384       0.27076295 </v>
    <v>       0.22413686       0.77586314       0.42437480 </v>
    <v>       0.11111000       0.88889000       0.04751000 </v>
    <v>       0.10323807       0.89676193       0.43323213 </v>
    <v>       0.99999981       0.66519028       0.34539260 </v>
    <v>       0.22222000       0.77778000       0.19748000 </v>
    <v>       0.33333000       0.66667000       0.12250000 </v>
    <v>       0.29179899       0.70820101       0.54207457 </v>
    <v>       0.44987813       0.88572682       0.27594885 </v>
    <v>       0.59276449       0.74737886       0.42173018 </v>
    <v>       0.44444000       0.88889000       0.04751000 </v>
    <v>       0.46527390       0.86741105       0.44624007 </v>
    <v>       0.33669691       0.66330309       0.35966718 </v>
    <v>       0.55556000       0.77778000       0.19748000 </v>
    <v>       0.66667000       0.66667000       0.12250000 </v>
    <v>       0.67069145       0.66384583       0.52789182 </v>
    <v>       0.77640855       0.89110914       0.27474200 </v>
    <v>       0.86383599       0.80023495       0.43018966 </v>
    <v>       0.77778000       0.88889000       0.04751000 </v>
    <v>       0.72701730       0.93642570       0.48393269 </v>
    <v>       0.67727252       0.66031872       0.34055876 </v>
    <v>       0.88889000       0.77778000       0.19748000 </v>
   </varray>
  </structure>
  <varray name="forces" >
   <v>       0.40588605      -0.23433842      -1.06424920 </v>
   <v>      -0.07622243       0.17782026      -2.55909805 </v>
   <v>      -0.19210808      -0.02289956      -2.55909805 </v>
   <v>      -0.73385296       0.09741679      -1.02164547 </v>
   <v>       1.12659615      -0.65044059      -0.54290971 </v>
   <v>      -0.45129189       0.58682692      -1.02164547 </v>
   <v>      -0.73806652       0.14513522       0.21183596 </v>
   <v>      -0.63204985       0.20401001       0.33706477 </v>
   <v>       0.21802009       0.08801904      -2.66674067 </v>
   <v>       1.12641732       0.20779687      -0.51849443 </v>
   <v>       0.59126061      -0.10433915      -0.16586360 </v>
   <v>      -0.46801684       0.27020965      -0.31727243 </v>
   <v>       0.18372492      -0.10607363       0.94962737 </v>
   <v>      -0.54500262       0.39584199      -0.07664667 </v>
   <v>       0.10690655      -0.43484148       0.24227919 </v>
   <v>       0.66607982      -0.38456136      -0.28462862 </v>
   <v>      -0.42339658       0.24444813       0.63903213 </v>
   <v>       0.34091744      -0.19682878      -0.95582135 </v>
   <v>       0.38325129      -1.07940445      -0.51849443 </v>
   <v>       0.38599066      -0.45987713      -0.16586360 </v>
   <v>       0.03278332      -0.23282046      -2.66674067 </v>
   <v>       1.00628714      -0.58098015      -0.47765342 </v>
   <v>       0.16224193      -0.09367042      -0.88687629 </v>
   <v>      -0.61531053       0.27406512      -0.07664667 </v>
   <v>       0.43003705       0.12483695       0.24227919 </v>
   <v>      -0.49472405       0.56661674       0.21183596 </v>
   <v>      -0.49270278       0.44536622       0.33706477 </v>
   <v>      -0.10519666       0.06073532      -0.17738557 </v>
[...]
   <energy>
    <i name="e_fr_energy">   -675.02544612 </i>
    <i name="e_wo_entrp">   -674.96192393 </i>
    <i name="e_0_energy">   -674.99368502 </i>
   </energy>
  </scstep>
  <scstep>
   <time name="dav">   20.41   20.42</time>
   <time name="total">   23.14   23.16</time>
   <energy>
    <i name="e_fr_energy">   -675.02524844 </i>
    <i name="e_wo_entrp">   -674.96180886 </i>
    <i name="e_0_energy">   -674.99352865 </i>
   </energy>
  </scstep>
  <scstep>
   <time name="dav">   22.05   22.06</time>
   <time name="total">   23.44   23.45</time>
   <energy>
    <i name="alphaZ">   1839.19756306 </i>
    <i name="ewald"> 126127.19552303 </i>
    <i name="hartreedc">-180038.48739995 </i>
    <i name="XCdc">   2053.60371725 </i>
    <i name="pawpsdc">  57460.42447253 </i>
    <i name="pawaedc"> -56779.44720278 </i>
    <i name="eentropy">     -0.06380063 </i>
    <i name="bandstr">  -8152.84362239 </i>
    <i name="atom">  56815.39572979 </i>
    <i name="e_fr_energy">   -675.02502010 </i>
    <i name="e_wo_entrp">   -674.96121947 </i>
    <i name="e_0_energy">   -674.99311979 </i>
   </energy>
  </scstep>
  <structure>
   <crystal>
    <varray name="basis" >
     <v>      11.59820000       0.00000000       0.00000000 </v>
     <v>      -5.79910000      10.04433584       0.00000000 </v>
     <v>       0.00000000       0.00000000      21.04820000 </v>
    </varray>
    <i name="volume">   2452.03565189 </i>
    <varray name="rec_basis" >
     <v>       0.08622028       0.04977930       0.00000000 </v>
     <v>       0.00000000       0.09955860       0.00000000 </v>
     <v>       0.00000000       0.00000000       0.04751000 </v>
    </varray>
   </crystal>
   <varray name="positions" >
    <v>       0.99313374       0.00686626       0.44330786 </v>
    <v>       0.62484082       0.03677620       0.49618259 </v>
    <v>       0.96322380       0.37515918       0.49618259 </v>
    <v>       0.32899169       0.33258503       0.44884348 </v>
    <v>       0.31385797       0.68614203       0.46041096 </v>
    <v>       0.66741497       0.67100831       0.44884348 </v>
    <v>       0.22294597       0.11461904       0.30799981 </v>
    <v>       0.11111000       0.22222000       0.15999000 </v>
    <v>       0.31952495       0.00479199       0.45930186 </v>
    <v>       0.55795548       0.11222316       0.31083362 </v>
    <v>       0.44444000       0.22222000       0.15999000 </v>
    <v>       0.88566156       0.11433844       0.31045620 </v>
    <v>       0.77778000       0.22222000       0.15999000 </v>
    <v>       0.21563212       0.43915609       0.31180996 </v>
    <v>       0.11111000       0.55556000       0.15999000 </v>
    <v>       0.55547036       0.44452964       0.30795150 </v>
    <v>       0.44444000       0.55556000       0.15999000 </v>
    <v>       0.64762540       0.35237460       0.46894092 </v>
    <v>       0.88777684       0.44204452       0.31083362 </v>
    <v>       0.77778000       0.55556000       0.15999000 </v>
    <v>       0.99520801       0.68047505       0.45930186 </v>
    <v>       0.21896680       0.78103320       0.31061438 </v>
    <v>       0.11111000       0.88889000       0.15999000 </v>
    <v>       0.56084391       0.78436788       0.31180996 </v>
    <v>       0.44444000       0.88889000       0.15999000 </v>
    <v>       0.88538096       0.77705403       0.30799981 </v>
    <v>       0.77778000       0.88889000       0.15999000 </v>
    <v>       0.00000000       0.00000000       0.12250000 </v>
    <v>       0.98368142       0.01631858       0.52705317 </v>
    <v>       0.11362972       0.22472123       0.27463204 </v>
    <v>       0.17452204       0.15303513       0.42536901 </v>
    <v>       0.11111000       0.22222000       0.04751000 </v>
    <v>       0.04390471       0.28443998       0.48079898 </v>
    <v>       0.00276651       0.99723349       0.34331184 </v>
    <v>       0.22222000       0.11111000       0.19748000 </v>
    <v>       0.33333000       0.00000000       0.12250000 </v>
    <v>       0.29479046       0.90211064       0.55803323 </v>
    <v>       0.44532142       0.22034081       0.27245486 </v>
    <v>       0.55179821       0.11350399       0.43947981 </v>
    <v>       0.44444000       0.22222000       0.04751000 </v>
    <v>       0.41503899       0.22534795       0.44166743 </v>
    <v>       0.33049289       0.00438671       0.35307493 </v>
    <v>       0.55556000       0.11111000       0.19748000 </v>
    <v>       0.66667000       0.00000000       0.12250000 </v>
    <v>       0.59204259       0.04526746       0.57550539 </v>
    <v>       0.77446801       0.22553199       0.27393241 </v>
    <v>       0.90410887       0.09589113       0.42359905 </v>
    <v>       0.77778000       0.22222000       0.04751000 </v>
    <v>       0.77674937       0.22325063       0.48824073 </v>
    <v>       0.66439169       0.00319092       0.34349409 </v>
    <v>       0.88889000       0.11111000       0.19748000 </v>
    <v>       0.00000000       0.33333000       0.12250000 </v>
    <v>       0.95473254       0.40795741       0.57550539 </v>
    <v>       0.11772599       0.56363871       0.27702348 </v>
    <v>       0.26155958       0.43711117       0.42287484 </v>
    <v>       0.11111000       0.55556000       0.04751000 </v>
    <v>       0.11839626       0.54708851       0.47045432 </v>
    <v>       0.99680908       0.33560831       0.34349409 </v>
    <v>       0.22222000       0.44444000       0.19748000 </v>
    <v>       0.33333000       0.33333000       0.12250000 </v>
    <v>       0.31096173       0.32236572       0.53155407 </v>
    <v>       0.43805458       0.56194542       0.27762048 </v>
    <v>       0.52303083       0.47696917       0.44034019 </v>
    <v>       0.44444000       0.55556000       0.04751000 </v>
    <v>       0.37182972       0.62817028       0.52239109 </v>
    <v>       0.34118499       0.33141301       0.34564780 </v>
    <v>       0.55556000       0.44444000       0.19748000 </v>
    <v>       0.66667000       0.33333000       0.12250000 </v>
    <v>       0.63636563       0.36363437       0.55752517 </v>
    <v>       0.77965919       0.55467858       0.27245486 </v>
    <v>       0.88649601       0.44820179       0.43947981 </v>
    <v>       0.77778000       0.55556000       0.04751000 </v>
    <v>       0.77465205       0.58496101       0.44166743 </v>
    <v>       0.66353956       0.33646044       0.35049848 </v>
    <v>       0.88889000       0.44444000       0.19748000 </v>
    <v>       0.00000000       0.66667000       0.12250000 </v>
    <v>       0.09788936       0.70520954       0.55803323 </v>
    <v>       0.11236685       0.88763315       0.27339863 </v>
    <v>       0.21819836       0.78180164       0.42835126 </v>
    <v>       0.11111000       0.88889000       0.04751000 </v>
    <v>       0.09490177       0.90509823       0.45205121 </v>
    <v>       0.99561329       0.66950711       0.35307493 </v>
    <v>       0.22222000       0.77778000       0.19748000 </v>
    <v>       0.33333000       0.66667000       0.12250000 </v>
    <v>       0.23376392       0.76623608       0.56272470 </v>
    <v>       0.43636129       0.88227401       0.27702348 </v>
    <v>       0.56288883       0.73844042       0.42287484 </v>
    <v>       0.44444000       0.88889000       0.04751000 </v>
    <v>       0.45291149       0.88160374       0.47045432 </v>
    <v>       0.32615160       0.67384840       0.36811255 </v>
    <v>       0.55556000       0.77778000       0.19748000 </v>
    <v>       0.66667000       0.66667000       0.12250000 </v>
    <v>       0.67763428       0.68903827       0.53155407 </v>
    <v>       0.77527877       0.88637028       0.27463204 </v>
    <v>       0.84696487       0.82547796       0.42536901 </v>
    <v>       0.77778000       0.88889000       0.04751000 </v>
    <v>       0.71556002       0.95609529       0.48079898 </v>
    <v>       0.66858699       0.65881501       0.34564780 </v>
    <v>       0.88889000       0.77778000       0.19748000 </v>
   </varray>
  </structure>
  <varray name="forces" >
   <v>       0.26379872      -0.15230426      -0.29822660 </v>
   <v>       0.69790053      -0.29113398       0.00686705 </v>
   <v>       0.60107969      -0.45883259       0.00686705 </v>
   <v>       0.30987293      -0.05208566       0.20919958 </v>
   <v>       0.23001127      -0.13279707       0.49651871 </v>
   <v>       0.20004397      -0.24231500       0.20919958 </v>
   <v>      -0.02367874      -0.07119125      -0.14049258 </v>
   <v>      -0.07870507       0.13112267      -1.04600219 </v>
   <v>      -0.13607758      -0.13346944      -0.07452007 </v>
   <v>      -0.00718387      -0.00306451      -0.01386059 </v>
   <v>       0.12685676      -0.12151286      -1.13917671 </v>
   <v>       0.01612207      -0.00930808       0.06694432 </v>
   <v>      -0.06827715       0.03941983      -1.03891251 </v>
   <v>      -0.04187104       0.29687256       0.05309789 </v>
   <v>       0.07064468       0.07304113      -0.83692836 </v>
   <v>       0.10331110      -0.05964669      -0.01511361 </v>
   <v>      -0.28823195       0.16641079      -0.79000885 </v>
   <v>       0.11353648      -0.06555032       0.07854403 </v>
   <v>      -0.00093800       0.00775367      -0.01386059 </v>
   <v>       0.16866160      -0.04910474      -1.13917671 </v>
   <v>       0.04754913       0.18458136      -0.07452007 </v>
   <v>       0.24802271      -0.14319598      -0.05248276 </v>
   <v>       0.13223180      -0.07634407      -1.10219893 </v>
   <v>      -0.27803470      -0.11217490       0.05309789 </v>
   <v>      -0.02793313      -0.09770066      -0.83692836 </v>
   <v>       0.04981407       0.05610202      -0.14049258 </v>
   <v>      -0.15290810       0.00259925      -1.04600219 </v>
   <v>       0.03206677      -0.01851376       0.12720514 </v>
   <v>       0.01539560      -0.00888865       0.31222963 </v>
   <v>      -0.05432655      -0.07149998       0.00840782 </v>
   <v>       0.04997904      -0.04753326       0.04359129 </v>
   <v>      -0.02809358       0.02214775       0.12291555 </v>
   <v>      -0.47685760       0.28615511       0.01572016 </v>
   <v>       0.02363081      -0.01364325       0.01373106 </v>
   <v>      -0.08019610       0.02673436       0.62571308 </v>
   <v>       0.02456254      -0.02777981       0.09317055 </v>
   <v>      -0.23857903      -0.12883321       0.27706886 </v>
   <v>       0.04811114      -0.07134178       0.11039722 </v>
   <v>       0.08804598       0.04692673      -0.09459070 </v>
   <v>      -0.02855136       0.00078344       0.09537990 </v>
   <v>      -0.09659618       0.16595683       0.00765973 </v>
   <v>      -0.00497360      -0.00155016      -0.07742776 </v>
   <v>       0.08160516      -0.23052062       0.75447516 </v>
   <v>       0.02506771      -0.01351946       0.08140787 </v>
   <v>      -0.19957676       0.07742929       0.22365156 </v>
   <v>       0.01231345      -0.00710918       0.02888400 </v>
   <v>      -0.00753227       0.00434876      -0.06246447 </v>
   <v>      -0.01487305       0.00858696       0.10415312 </v>
   <v>       0.01524219      -0.00880008      -0.06708836 </v>
   <v>       0.02770748       0.04132994      -0.09360636 </v>
   <v>      -0.07203872       0.04159158       0.71930543 </v>
   <v>       0.02424205      -0.01494954       0.08140787 </v>
   <v>      -0.16684411       0.13412390       0.22365156 </v>
   <v>      -0.07343414      -0.07833406       0.00592374 </v>
   <v>      -0.16662422       0.17586278      -0.09536399 </v>
   <v>      -0.03118644      -0.00044939       0.15061011 </v>
   <v>       0.06991205       0.06081905      -0.15227342 </v>
   <v>      -0.02193904      -0.04466036      -0.09360636 </v>
   <v>      -0.11323226      -0.04804646       0.62066960 </v>
   <v>       0.03721711       0.01274390       0.12895055 </v>
   <v>       0.02435528       0.01361484      -0.19701517 </v>
   <v>       0.06384204      -0.03685922       0.00087832 </v>
   <v>      -0.07553046       0.04360753      -0.03526343 </v>
   <v>      -0.02937705       0.01696085       0.16620202 </v>
   <v>      -0.39686735       0.22913147      -0.19887342 </v>
   <v>       0.02863827      -0.03644312       0.04774561 </v>
   <v>      -0.23837655       0.13762677       0.79076454 </v>
   <v>       0.02356904      -0.01360759       0.10856642 </v>
   <v>       0.06675267      -0.03853967       0.00052004 </v>
   <v>       0.08583937      -0.00599458       0.11039722 </v>
   <v>       0.00338325      -0.09971342      -0.09459070 </v>
   <v>      -0.01495416       0.02433448       0.09537990 </v>
   <v>      -0.19202092       0.00067633       0.00765973 </v>
   <v>       0.01332530      -0.00769336       0.05296963 </v>
   <v>       0.24043930       0.04458817       0.75447516 </v>
   <v>       0.03633929      -0.00738188       0.09317055 </v>
   <v>      -0.00771668       0.27103210       0.27706886 </v>
   <v>      -0.01027430       0.00593187       0.09474470 </v>
   <v>       0.01335789      -0.00771218       0.27323607 </v>
   <v>      -0.01915384       0.01105847       0.10202621 </v>
   <v>       0.00815691      -0.00470939       0.03508983 </v>
   <v>      -0.00114432       0.00508235      -0.07742776 </v>
   <v>      -0.06095470       0.03519221       0.47645678 </v>
   <v>       0.03714226      -0.02144409       0.09272130 </v>
   <v>      -0.02324762       0.01342202       0.37077211 </v>
   <v>       0.03112221       0.10276286       0.00592374 </v>
   <v>      -0.23561374       0.05636942      -0.09536399 </v>
   <v>      -0.01520403       0.02723295       0.15061011 </v>
   <v>      -0.01771481      -0.09095514      -0.15227342 </v>
   <v>       0.12960554      -0.07482779      -0.29456042 </v>
   <v>      -0.01500668       0.12208525       0.62066960 </v>
   <v>       0.00757202      -0.03860291       0.12895055 </v>
   <v>       0.00038684      -0.02789971      -0.19701517 </v>
   <v>       0.03475753       0.08279816       0.00840782 </v>
   <v>       0.06615453      -0.01951648       0.04359129 </v>
   <v>      -0.03322730       0.01325588       0.12291555 </v>
   <v>      -0.48624640       0.26989324       0.01572016 </v>
   <v>       0.04587980      -0.00657991       0.04774561 </v>
   <v>      -0.06325068       0.05608468       0.62571308 </v>
  </varray>
  <varray name="stress" >
   <v>       5.54475023      -0.62670444       0.21259221 </v>
   <v>      -0.62670444       4.82109428      -0.12274017 </v>
   <v>       0.21259794      -0.12274348       4.19580124 </v>
  </varray>
  <energy>
   <i name="e_fr_energy">   -675.02502010 </i>
   <i name="e_wo_entrp">   -674.96121947 </i>
   <i name="e_0_energy">   -674.99311979 </i>
  </energy>
  <time name="totalsc"> 2315.64 2317.24</time>
 </calculation>
 <calculation>
  <scstep>
   <time name="dav">   16.96   17.50</time>
   <time name="total">   19.68   20.22</time>
   <energy>
    <i name="alphaZ">   1839.19756306 </i>
    <i name="ewald"> 126068.65574669 </i>
    <i name="hartreedc">-179978.37889574 </i>
    <i name="XCdc">   2053.64346461 </i>
    <i name="pawpsdc">  57460.36764910 </i>
    <i name="pawaedc"> -56779.39035700 </i>
    <i name="eentropy">     -0.06053655 </i>
    <i name="bandstr">  -8154.44478630 </i>
    <i name="atom">  56815.39572979 </i>
    <i name="e_fr_energy">   -675.01442236 </i>
    <i name="e_wo_entrp">   -674.95388580 </i>
    <i name="e_0_energy">   -674.98415408 </i>
   </energy>
  </scstep>
  <scstep>
   <time name="dav">   22.98   22.99</time>
   <time name="total">   25.75   25.77</time>
   <energy>
    <i name="e_fr_energy">   -675.12105477 </i>
    <i name="e_wo_entrp">   -675.08326102 </i>
    <i name="e_0_energy">   -675.10215789 </i>
   </energy>
  </scstep>
  <scstep>
   <time name="dav">   26.47   26.49</time>
   <time name="total">   29.18   29.20</time>
   <energy>
    <i name="e_fr_energy">   -675.08831719 </i>
    <i name="e_wo_entrp">   -675.01716717 </i>
    <i name="e_0_energy">   -675.05274218 </i>
   </energy>
  </scstep>
  <scstep>
   <time name="dav">   26.86   26.88</time>
   <time name="total">   29.55   29.57</time>
   <energy>
    <i name="e_fr_energy">   -675.07423927 </i>
    <i name="e_wo_entrp">   -675.00496462 </i>
    <i name="e_0_energy">   -675.03960194 </i>
   </energy>
  </scstep>
  <scstep>
   <time name="dav">   26.67   26.68</time>
   <time name="total">   29.38   29.40</time>
   <energy>
    <i name="e_fr_energy">   -675.08150629 </i>
    <i name="e_wo_entrp">   -675.01431578 </i>
    <i name="e_0_energy">   -675.04791104 </i>
   </energy>
  </scstep>
  <scstep>
   <time name="dav">   24.73   24.74</time>
   <time name="total">   27.42   27.44</time>
   <energy>
    <i name="e_fr_energy">   -675.08178264 </i>
    <i name="e_wo_entrp">   -675.02020572 </i>
    <i name="e_0_energy">   -675.05099418 </i>
   </energy>
  </scstep>
  <scstep>
   <time name="dav">   25.17   25.19</time>
   <time name="total">   27.86   27.88</time>
   <energy>
    <i name="e_fr_energy">   -675.08146242 </i>
    <i name="e_wo_entrp">   -675.02535155 </i>
    <i name="e_0_energy">   -675.05340699 </i>
   </energy>
  </scstep>
  <scstep>
   <time name="dav">   25.09   25.10</time>
   <time name="total">   27.81   27.82</time>
   <energy>
    <i name="e_fr_energy">   -675.08006181 </i>
    <i name="e_wo_entrp">   -675.02892847 </i>
    <i name="e_0_energy">   -675.05449514 </i>
   </energy>
  </scstep>
  <scstep>
   <time name="dav">   25.17   25.19</time>
   <time name="total">   27.87   27.89</time>
   <energy>
    <i name="e_fr_energy">   -675.07588325 </i>
    <i name="e_wo_entrp">   -675.02446512 </i>
    <i name="e_0_energy">   -675.05017418 </i>
   </energy>
  </scstep>
  <scstep>
   <time name="dav">   24.72   24.73</time>
   <time name="total">   27.41   27.43</time>
   <energy>
    <i name="e_fr_energy">   -675.07395330 </i>
    <i name="e_wo_entrp">   -675.02263497 </i>
    <i name="e_0_energy">   -675.04829414 </i>
   </energy>
  </scstep>
  <scstep>
   <time name="dav">   22.86   22.87</time>
   <time name="total">   25.59   25.61</time>
   <energy>
    <i name="e_fr_energy">   -675.06907838 </i>
    <i name="e_wo_entrp">   -675.01776138 </i>
    <i name="e_0_energy">   -675.04341988 </i>
   </energy>
  </scstep>
  <scstep>
   <time name="dav">   22.41   22.43</time>
   <time name="total">   25.10   25.12</time>
   <energy>
    <i name="e_fr_energy">   -675.07372529 </i>
    <i name="e_wo_entrp">   -675.02241869 </i>
    <i name="e_0_energy">   -675.04807199 </i>
   </energy>
  </scstep>
  <scstep>
   <time name="dav">   22.77   22.78</time>
   <time name="total">   25.46   25.47</time>
   <energy>
    <i name="e_fr_energy">   -675.07646206 </i>
    <i name="e_wo_entrp">   -675.02427644 </i>
    <i name="e_0_energy">   -675.05036925 </i>
   </energy>
  </scstep>
  <scstep>
   <time name="dav">   23.05   23.07</time>
   <time name="total">   25.79   25.80</time>
   <energy>
    <i name="e_fr_energy">   -675.07206427 </i>
    <i name="e_wo_entrp">   -675.01608631 </i>
    <i name="e_0_energy">   -675.04407529 </i>
   </energy>
  </scstep>
  <scstep>
   <time name="dav">   23.05   23.06</time>
   <time name="total">   25.76   25.78</time>
   <energy>
    <i name="e_fr_energy">   -675.06217153 </i>
    <i name="e_wo_entrp">   -674.99790763 </i>
    <i name="e_0_energy">   -675.03003958 </i>
   </energy>
  </scstep>
  <scstep>
   <time name="dav">   20.10   20.11</time>
   <time name="total">   22.80   22.81</time>
   <energy>
    <i name="e_fr_energy">   -675.06138036 </i>
    <i name="e_wo_entrp">   -674.99632033 </i>
    <i name="e_0_energy">   -675.02885035 </i>
   </energy>
  </scstep>
  <scstep>
   <time name="dav">   24.84   24.86</time>
   <time name="total">   27.56   27.58</time>
   <energy>
    <i name="e_fr_energy">   -675.06239611 </i>
    <i name="e_wo_entrp">   -674.99809265 </i>
    <i name="e_0_energy">   -675.03024438 </i>
   </energy>
  </scstep>
  <scstep>
