unknown system                          
           1
    11.598200    0.000000    0.000000
    -5.799100   10.044336    0.000000
     0.000000    0.000000   21.048200
   Ir   Ce   O 
     6    21    72
Direct configuration=     1
   0.01075685  0.98924315  0.44445876
   0.64048841  0.02013560  0.46590423
   0.97986440  0.35951159  0.46590423
   0.34465303  0.32583906  0.44438995
   0.31475375  0.68524625  0.45820126
   0.67416094  0.65534697  0.44438995
   0.22677815  0.10696414  0.30651620
   0.11111000  0.22222000  0.15999000
   0.33177317  0.00375700  0.46160895
   0.55888285  0.11045034  0.31063188
   0.44444000  0.22222000  0.15999000
   0.89038144  0.10961856  0.31345661
   0.77778000  0.22222000  0.15999000
   0.22252406  0.44109066  0.31182971
   0.11111000  0.55556000  0.15999000
   0.55909975  0.44090025  0.30711420
   0.44444000  0.55556000  0.15999000
   0.67095449  0.32904551  0.46383017
   0.88954966  0.44111715  0.31063188
   0.77778000  0.55556000  0.15999000
   0.99624300  0.66822683  0.46160895
   0.22375397  0.77624603  0.31164388
   0.11111000  0.88889000  0.15999000
   0.55890934  0.77747594  0.31182971
   0.44444000  0.88889000  0.15999000
   0.89303586  0.77322185  0.30651620
   0.77778000  0.88889000  0.15999000
   0.00000000  0.00000000  0.12250000
   0.00424728  0.99575272  0.52746612
   0.10889086  0.22359145  0.27474200
   0.19976505  0.13616401  0.43018966
   0.11111000  0.22222000  0.04751000
   0.06357430  0.27298270  0.48393269
   0.00965336  0.99034664  0.34230545
   0.22222000  0.11111000  0.19748000
   0.33333000  0.00000000  0.12250000
   0.32467668  0.99740833  0.55122544
   0.44775325  0.21755559  0.27026951
   0.55598342  0.10890583  0.42092442
   0.44444000  0.22222000  0.04751000
   0.44567364  0.24213649  0.43449758
   0.33480972  0.00000019  0.34539260
   0.55556000  0.11111000  0.19748000
   0.66667000  0.00000000  0.12250000
   0.59069501  0.05306948  0.53916133
   0.78244049  0.21755951  0.27535758
   0.92310217  0.07689783  0.42331588
   0.77778000  0.22222000  0.04751000
   0.79665556  0.20334444  0.45962312
   0.67518829  0.00202364  0.36207421
   0.88889000  0.11111000  0.19748000
   0.00000000  0.33333000  0.12250000
   0.94693052  0.40930499  0.53916133
   0.11427318  0.55012187  0.27594885
   0.25262114  0.40723551  0.42173018
   0.11111000  0.55556000  0.04751000
   0.13258895  0.53472610  0.44624007
   0.99797636  0.32481171  0.36207421
   0.22222000  0.44444000  0.19748000
   0.33333000  0.33333000  0.12250000
   0.33615417  0.32930855  0.52789182
   0.44221436  0.55778564  0.27534821
   0.51513425  0.48486575  0.42131939
   0.44444000  0.55556000  0.04751000
   0.39989603  0.60010397  0.49542575
   0.33968128  0.32272748  0.34055876
   0.55556000  0.44444000  0.19748000
   0.66667000  0.33333000  0.12250000
   0.66094226  0.33905774  0.55267455
   0.78244441  0.55224675  0.27026951
   0.89109417  0.44401658  0.42092442
   0.77778000  0.55556000  0.04751000
   0.75786351  0.55432636  0.43449758
   0.66822817  0.33177183  0.34379233
   0.88889000  0.44444000  0.19748000
   0.00000000  0.66667000  0.12250000
   0.00259167  0.67532332  0.55122544
   0.11527616  0.88472384  0.27076295
   0.22413686  0.77586314  0.42437480
   0.11111000  0.88889000  0.04751000
   0.10323807  0.89676193  0.43323213
   0.99999981  0.66519028  0.34539260
   0.22222000  0.77778000  0.19748000
   0.33333000  0.66667000  0.12250000
   0.29179899  0.70820101  0.54207457
   0.44987813  0.88572682  0.27594885
   0.59276449  0.74737886  0.42173018
   0.44444000  0.88889000  0.04751000
   0.46527390  0.86741105  0.44624007
   0.33669691  0.66330309  0.35966718
   0.55556000  0.77778000  0.19748000
   0.66667000  0.66667000  0.12250000
   0.67069145  0.66384583  0.52789182
   0.77640855  0.89110914  0.27474200
   0.86383599  0.80023495  0.43018966
   0.77778000  0.88889000  0.04751000
   0.72701730  0.93642570  0.48393269
   0.67727252  0.66031872  0.34055876
   0.88889000  0.77778000  0.19748000
Direct configuration=     2
   0.01188237  0.98811763  0.44201949
   0.64059840  0.02098967  0.46003875
   0.97901033  0.35940160  0.46003875
   0.34183452  0.32630695  0.44204833
   0.31787780  0.68212220  0.45695691
   0.67369305  0.65816548  0.44204833
   0.22405671  0.10766122  0.30700173
   0.11111000  0.22222000  0.15999000
   0.33289140  0.00417975  0.45549676
   0.56406719  0.11144838  0.30944349
   0.44444000  0.22222000  0.15999000
   0.88908363  0.11091637  0.31272942
   0.77778000  0.22222000  0.15999000
   0.22120773  0.44299188  0.31165403
   0.11111000  0.55556000  0.15999000
   0.56094679  0.43905321  0.30646183
   0.44444000  0.55556000  0.15999000
   0.67189985  0.32810015  0.46163942
   0.88855162  0.43593281  0.30944349
   0.77778000  0.55556000  0.15999000
   0.99582025  0.66710860  0.45549676
   0.22654440  0.77345560  0.31054909
   0.11111000  0.88889000  0.15999000
   0.55700812  0.77879227  0.31165403
   0.44444000  0.88889000  0.15999000
   0.89233878  0.77594329  0.30700173
   0.77778000  0.88889000  0.15999000
   0.00000000  0.00000000  0.12250000
   0.00437167  0.99562833  0.52782496
   0.10465010  0.21955196  0.27286839
   0.19948161  0.13724014  0.43161320
   0.11111000  0.22222000  0.04751000
   0.06385180  0.27251997  0.48460004
   0.00777918  0.99222082  0.34574850
   0.22222000  0.11111000  0.19748000
   0.33333000  0.00000000  0.12250000
   0.32411458  0.99731870  0.55344698
   0.44743734  0.22214687  0.26805411
   0.55700454  0.10869884  0.42613391
   0.44444000  0.22222000  0.04751000
   0.44522084  0.24126764  0.43485118
   0.33069067  0.99562014  0.34991597
   0.55556000  0.11111000  0.19748000
   0.66667000  0.00000000  0.12250000
   0.59038883  0.05351911  0.54065109
   0.78628188  0.21371812  0.27278805
   0.92288255  0.07711745  0.42372037
   0.77778000  0.22222000  0.04751000
   0.79617415  0.20382585  0.46035038
   0.67831350  0.00313011  0.36640036
   0.88889000  0.11111000  0.19748000
   0.00000000  0.33333000  0.12250000
   0.94648089  0.40961117  0.54065109
   0.11706244  0.55638602  0.27380793
   0.25390976  0.40538092  0.42411151
   0.11111000  0.55556000  0.04751000
   0.13361360  0.53570727  0.44701247
   0.99686989  0.32168650  0.36640036
   0.22222000  0.44444000  0.19748000
   0.33333000  0.33333000  0.12250000
   0.33670510  0.32937491  0.52763544
   0.44507229  0.55492771  0.27272015
   0.51499205  0.48500795  0.42265634
   0.44444000  0.55556000  0.04751000
   0.39837732  0.60162268  0.49504698
   0.34304553  0.32503402  0.34371262
   0.55556000  0.44444000  0.19748000
   0.66667000  0.33333000  0.12250000
   0.66058651  0.33941349  0.55259474
   0.77785313  0.55256266  0.26805411
   0.89130116  0.44299546  0.42613391
   0.77778000  0.55556000  0.04751000
   0.75873236  0.55477916  0.43485118
   0.66508129  0.33491871  0.34763553
   0.88889000  0.44444000  0.19748000
   0.00000000  0.66667000  0.12250000
   0.00268130  0.67588542  0.55344698
   0.11714007  0.88285993  0.26921846
   0.22225259  0.77774741  0.42520973
   0.11111000  0.88889000  0.04751000
   0.10300483  0.89699517  0.43335781
   0.00437986  0.66930933  0.34991597
   0.22222000  0.77778000  0.19748000
   0.33333000  0.66667000  0.12250000
   0.29071322  0.70928678  0.54554742
   0.44361398  0.88293756  0.27380793
   0.59461908  0.74609024  0.42411151
   0.44444000  0.88889000  0.04751000
   0.46429273  0.86638640  0.44701247
   0.33522098  0.66477902  0.36292261
   0.55556000  0.77778000  0.19748000
   0.66667000  0.66667000  0.12250000
   0.67062509  0.66329490  0.52763544
   0.78044804  0.89534990  0.27286839
   0.86275986  0.80051839  0.43161320
   0.77778000  0.88889000  0.04751000
   0.72748003  0.93614820  0.48460004
   0.67496598  0.65695447  0.34371262
   0.88889000  0.77778000  0.19748000
Direct configuration=     3
   0.01126078  0.98873922  0.44336662
   0.64053765  0.02051800  0.46327807
   0.97948200  0.35946235  0.46327807
   0.34339109  0.32604855  0.44334153
   0.31615249  0.68384751  0.45764413
   0.67395145  0.65660891  0.44334153
   0.22555968  0.10727625  0.30673359
   0.11111000  0.22222000  0.15999000
   0.33227383  0.00394628  0.45887233
   0.56120404  0.11089720  0.31009980
   0.44444000  0.22222000  0.15999000
   0.88980037  0.11019963  0.31313102
   0.77778000  0.22222000  0.15999000
   0.22193470  0.44194190  0.31175105
   0.11111000  0.55556000  0.15999000
   0.55992673  0.44007327  0.30682211
   0.44444000  0.55556000  0.15999000
   0.67137775  0.32862225  0.46284931
   0.88910280  0.43879596  0.31009980
   0.77778000  0.55556000  0.15999000
   0.99605372  0.66772617  0.45887233
   0.22500333  0.77499667  0.31115371
   0.11111000  0.88889000  0.15999000
   0.55805810  0.77806530  0.31175105
   0.44444000  0.88889000  0.15999000
   0.89272375  0.77444032  0.30673359
   0.77778000  0.88889000  0.15999000
   0.00000000  0.00000000  0.12250000
   0.00430298  0.99569702  0.52762679
   0.10699214  0.22178285  0.27390313
   0.19963814  0.13664583  0.43082702
   0.11111000  0.22222000  0.04751000
   0.06369855  0.27277552  0.48423148
   0.00881423  0.99118577  0.34384701
   0.22222000  0.11111000  0.19748000
   0.33333000  0.00000000  0.12250000
   0.32442501  0.99736820  0.55222010
   0.44761181  0.21961125  0.26927761
   0.55644061  0.10881315  0.42325687
   0.44444000  0.22222000  0.04751000
   0.44547091  0.24174748  0.43465590
   0.33296549  0.99803911  0.34741785
   0.55556000  0.11111000  0.19748000
   0.66667000  0.00000000  0.12250000
   0.59055792  0.05327079  0.53982834
   0.78416040  0.21583960  0.27420712
   0.92300384  0.07699616  0.42349698
   0.77778000  0.22222000  0.04751000
   0.79644002  0.20355998  0.45994874
   0.67658755  0.00251904  0.36401116
   0.88889000  0.11111000  0.19748000
   0.00000000  0.33333000  0.12250000
   0.94672921  0.40944208  0.53982834
   0.11552202  0.55292652  0.27499030
   0.25319809  0.40640515  0.42279637
   0.11111000  0.55556000  0.04751000
   0.13304772  0.53516540  0.44658590
   0.99748096  0.32341245  0.36401116
   0.22222000  0.44444000  0.19748000
   0.33333000  0.33333000  0.12250000
   0.33640084  0.32933826  0.52777703
   0.44349395  0.55650605  0.27417155
   0.51507058  0.48492942  0.42191798
   0.44444000  0.55556000  0.04751000
   0.39921606  0.60078394  0.49525617
   0.34118756  0.32376019  0.34197084
   0.55556000  0.44444000  0.19748000
   0.66667000  0.33333000  0.12250000
   0.66078298  0.33921702  0.55263882
   0.78038875  0.55238819  0.26927761
   0.89118685  0.44355939  0.42325687
   0.77778000  0.55556000  0.04751000
   0.75825252  0.55452909  0.43465590
   0.66681921  0.33318079  0.34551305
   0.88889000  0.44444000  0.19748000
   0.00000000  0.66667000  0.12250000
   0.00263180  0.67557499  0.55222010
   0.11611069  0.88388931  0.27007144
   0.22329322  0.77670678  0.42474862
   0.11111000  0.88889000  0.04751000
   0.10313364  0.89686636  0.43328840
   0.00196089  0.66703451  0.34741785
   0.22222000  0.77778000  0.19748000
   0.33333000  0.66667000  0.12250000
   0.29131286  0.70868714  0.54362947
   0.44707348  0.88447798  0.27499030
   0.59359485  0.74680191  0.42279637
   0.44444000  0.88889000  0.04751000
   0.46483460  0.86695228  0.44658590
   0.33603609  0.66396391  0.36112473
   0.55556000  0.77778000  0.19748000
   0.66667000  0.66667000  0.12250000
   0.67066174  0.66359916  0.52777703
   0.77821715  0.89300786  0.27390313
   0.86335417  0.80036186  0.43082702
   0.77778000  0.88889000  0.04751000
   0.72722448  0.93630145  0.48423148
   0.67623981  0.65881244  0.34197084
   0.88889000  0.77778000  0.19748000
Direct configuration=     4
   0.01107834  0.98892166  0.44376201
   0.64051983  0.02037956  0.46422882
   0.97962044  0.35948017  0.46422882
   0.34384795  0.32597271  0.44372109
   0.31564610  0.68435390  0.45784583
   0.67402729  0.65615205  0.44372109
   0.22600080  0.10716326  0.30665489
   0.11111000  0.22222000  0.15999000
   0.33209258  0.00387776  0.45986307
   0.56036370  0.11073542  0.31029243
   0.44444000  0.22222000  0.15999000
   0.89001074  0.10998926  0.31324889
   0.77778000  0.22222000  0.15999000
   0.22214806  0.44163373  0.31177953
   0.11111000  0.55556000  0.15999000
   0.55962734  0.44037266  0.30692786
   0.44444000  0.55556000  0.15999000
   0.67122452  0.32877548  0.46320441
   0.88926458  0.43963630  0.31029243
   0.77778000  0.55556000  0.15999000
   0.99612224  0.66790742  0.45986307
   0.22455102  0.77544898  0.31133116
   0.11111000  0.88889000  0.15999000
   0.55836627  0.77785194  0.31177953
   0.44444000  0.88889000  0.15999000
   0.89283674  0.77399920  0.30665489
   0.77778000  0.88889000  0.15999000
   0.00000000  0.00000000  0.12250000
   0.00428281  0.99571719  0.52756862
   0.10767953  0.22243761  0.27420682
   0.19968409  0.13647140  0.43059628
   0.11111000  0.22222000  0.04751000
   0.06365357  0.27285052  0.48412331
   0.00911802  0.99088198  0.34328892
   0.22222000  0.11111000  0.19748000
   0.33333000  0.00000000  0.12250000
   0.32451612  0.99738273  0.55186000
   0.44766301  0.21886704  0.26963671
   0.55627509  0.10884670  0.42241245
   0.44444000  0.22222000  0.04751000
   0.44554430  0.24188831  0.43459858
   0.33363316  0.99874908  0.34668465
   0.55556000  0.11111000  0.19748000
   0.66667000  0.00000000  0.12250000
   0.59060755  0.05319791  0.53958686
   0.78353774  0.21646226  0.27462363
   0.92303944  0.07696056  0.42343142
   0.77778000  0.22222000  0.04751000
   0.79651805  0.20348195  0.45983086
   0.67608097  0.00233969  0.36330993
   0.88889000  0.11111000  0.19748000
   0.00000000  0.33333000  0.12250000
   0.94680209  0.40939245  0.53958686
   0.11506990  0.55191115  0.27533732
   0.25298922  0.40670577  0.42241038
   0.11111000  0.55556000  0.04751000
   0.13288163  0.53500636  0.44646070
   0.99766031  0.32391903  0.36330993
   0.22222000  0.44444000  0.19748000
   0.33333000  0.33333000  0.12250000
   0.33631154  0.32932751  0.52781859
   0.44303070  0.55696930  0.27459754
   0.51509363  0.48490637  0.42170127
   0.44444000  0.55556000  0.04751000
   0.39946223  0.60053777  0.49531756
   0.34064224  0.32338632  0.34145963
   0.55556000  0.44444000  0.19748000
   0.66667000  0.33333000  0.12250000
   0.66084065  0.33915935  0.55265175
   0.78113296  0.55233699  0.26963671
   0.89115330  0.44372491  0.42241245
   0.77778000  0.55556000  0.04751000
   0.75811169  0.55445570  0.43459858
   0.66732930  0.33267070  0.34489010
   0.88889000  0.44444000  0.19748000
   0.00000000  0.66667000  0.12250000
   0.00261727  0.67548388  0.55186000
   0.11580857  0.88419143  0.27032179
   0.22359864  0.77640136  0.42461329
   0.11111000  0.88889000  0.04751000
   0.10317144  0.89682856  0.43326803
   0.00125092  0.66636684  0.34668465
   0.22222000  0.77778000  0.19748000
   0.33333000  0.66667000  0.12250000
   0.29148885  0.70851115  0.54306655
   0.44808885  0.88493010  0.27533732
   0.59329423  0.74701078  0.42241038
   0.44444000  0.88889000  0.04751000
   0.46499364  0.86711837  0.44646070
   0.33627533  0.66372467  0.36059705
   0.55556000  0.77778000  0.19748000
   0.66667000  0.66667000  0.12250000
   0.67067249  0.66368846  0.52781859
   0.77756239  0.89232047  0.27420682
   0.86352860  0.80031591  0.43059628
   0.77778000  0.88889000  0.04751000
   0.72714948  0.93634643  0.48412331
   0.67661368  0.65935776  0.34145963
   0.88889000  0.77778000  0.19748000
Direct configuration=     5
   0.01085916  0.98914084  0.44423702
   0.64049841  0.02021324  0.46537103
   0.97978676  0.35950159  0.46537103
   0.34439681  0.32588159  0.44417709
   0.31503774  0.68496226  0.45808814
   0.67411841  0.65560319  0.44417709
   0.22653076  0.10702751  0.30656034
   0.11111000  0.22222000  0.15999000
   0.33187482  0.00379543  0.46105332
   0.55935412  0.11054107  0.31052385
   0.44444000  0.22222000  0.15999000
   0.89026346  0.10973654  0.31339050
   0.77778000  0.22222000  0.15999000
   0.22240440  0.44126349  0.31181374
   0.11111000  0.55556000  0.15999000
   0.55926766  0.44073234  0.30705489
   0.44444000  0.55556000  0.15999000
   0.67104042  0.32895958  0.46363103
   0.88945893  0.44064588  0.31052385
   0.77778000  0.55556000  0.15999000
   0.99620457  0.66812518  0.46105332
   0.22400763  0.77599237  0.31154435
   0.11111000  0.88889000  0.15999000
   0.55873651  0.77759560  0.31181374
   0.44444000  0.88889000  0.15999000
   0.89297249  0.77346924  0.30656034
   0.77778000  0.88889000  0.15999000
   0.00000000  0.00000000  0.12250000
   0.00425859  0.99574141  0.52749874
   0.10850535  0.22322424  0.27457168
   0.19973928  0.13626184  0.43031906
   0.11111000  0.22222000  0.04751000
   0.06359953  0.27294063  0.48399335
   0.00948299  0.99051701  0.34261844
   0.22222000  0.11111000  0.19748000
   0.33333000  0.00000000  0.12250000
   0.32462558  0.99740018  0.55142739
   0.44772453  0.21797296  0.27006812
   0.55607625  0.10888701  0.42139798
   0.44444000  0.22222000  0.04751000
   0.44563248  0.24205751  0.43452972
   0.33443528  0.99960203  0.34580379
   0.55556000  0.11111000  0.19748000
   0.66667000  0.00000000  0.12250000
   0.59066718  0.05311035  0.53929675
   0.78278969  0.21721031  0.27512400
   0.92308220  0.07691780  0.42335265
   0.77778000  0.22222000  0.04751000
   0.79661180  0.20338820  0.45968923
   0.67547239  0.00212423  0.36246748
   0.88889000  0.11111000  0.19748000
   0.00000000  0.33333000  0.12250000
   0.94688965  0.40933282  0.53929675
   0.11452674  0.55069131  0.27575423
   0.25273828  0.40706692  0.42194665
   0.11111000  0.55556000  0.04751000
   0.13268210  0.53481529  0.44631028
   0.99787577  0.32452761  0.36246748
   0.22222000  0.44444000  0.19748000
   0.33333000  0.33333000  0.12250000
   0.33620425  0.32931459  0.52786852
   0.44247416  0.55752584  0.27510931
   0.51512132  0.48487868  0.42144092
   0.44444000  0.55556000  0.04751000
   0.39975797  0.60024203  0.49539132
   0.33998711  0.32293715  0.34084546
   0.55556000  0.44444000  0.19748000
   0.66667000  0.33333000  0.12250000
   0.66090992  0.33909008  0.55266730
   0.78202704  0.55227547  0.27006812
   0.89111299  0.44392375  0.42139798
   0.77778000  0.55556000  0.04751000
   0.75794249  0.55436752  0.43452972
   0.66794210  0.33205790  0.34414170
   0.88889000  0.44444000  0.19748000
   0.00000000  0.66667000  0.12250000
   0.00259982  0.67537442  0.55142739
   0.11544560  0.88455440  0.27062255
   0.22396557  0.77603443  0.42445070
   0.11111000  0.88889000  0.04751000
   0.10321686  0.89678314  0.43324356
   0.00039797  0.66556472  0.34580379
   0.22222000  0.77778000  0.19748000
   0.33333000  0.66667000  0.12250000
   0.29170029  0.70829971  0.54239027
   0.44930869  0.88547326  0.27575423
   0.59293308  0.74726172  0.42194665
   0.44444000  0.88889000  0.04751000
   0.46518471  0.86731790  0.44631028
   0.33656274  0.66343726  0.35996311
   0.55556000  0.77778000  0.19748000
   0.66667000  0.66667000  0.12250000
   0.67068541  0.66379575  0.52786852
   0.77677576  0.89149465  0.27457168
   0.86373816  0.80026072  0.43031906
   0.77778000  0.88889000  0.04751000
   0.72705937  0.93640047  0.48399335
   0.67706285  0.66001289  0.34084546
   0.88889000  0.77778000  0.19748000
Direct configuration=     6
   0.01081304  0.98918696  0.44433697
   0.64049390  0.02017824  0.46561138
   0.97982176  0.35950610  0.46561138
   0.34451231  0.32586242  0.44427304
   0.31490973  0.68509027  0.45813913
   0.67413758  0.65548769  0.44427304
   0.22664228  0.10699895  0.30654044
   0.11111000  0.22222000  0.15999000
   0.33182900  0.00377811  0.46130379
   0.55914168  0.11050017  0.31057255
   0.44444000  0.22222000  0.15999000
   0.89031664  0.10968336  0.31342030
   0.77778000  0.22222000  0.15999000
   0.22245834  0.44118559  0.31182094
   0.11111000  0.55556000  0.15999000
   0.55919197  0.44080803  0.30708163
   0.44444000  0.55556000  0.15999000
   0.67100168  0.32899832  0.46372080
   0.88949983  0.44085832  0.31057255
   0.77778000  0.55556000  0.15999000
   0.99622189  0.66817100  0.46130379
   0.22389329  0.77610671  0.31158922
   0.11111000  0.88889000  0.15999000
   0.55881441  0.77754166  0.31182094
   0.44444000  0.88889000  0.15999000
   0.89300105  0.77335772  0.30654044
   0.77778000  0.88889000  0.15999000
   0.00000000  0.00000000  0.12250000
   0.00425349  0.99574651  0.52748404
   0.10867913  0.22338977  0.27464845
   0.19975090  0.13621774  0.43026073
   0.11111000  0.22222000  0.04751000
   0.06358816  0.27295959  0.48396601
   0.00955979  0.99044021  0.34247735
   0.22222000  0.11111000  0.19748000
   0.33333000  0.00000000  0.12250000
   0.32464861  0.99740385  0.55133636
   0.44773748  0.21778482  0.27015890
   0.55603441  0.10889549  0.42118451
   0.44444000  0.22222000  0.04751000
   0.44565103  0.24209311  0.43451523
   0.33460407  0.99978151  0.34561843
   0.55556000  0.11111000  0.19748000
   0.66667000  0.00000000  0.12250000
   0.59067972  0.05309193  0.53923570
   0.78263227  0.21736773  0.27522930
   0.92309120  0.07690880  0.42333607
   0.77778000  0.22222000  0.04751000
   0.79663152  0.20336848  0.45965943
   0.67534432  0.00207888  0.36229020
   0.88889000  0.11111000  0.19748000
   0.00000000  0.33333000  0.12250000
   0.94690807  0.40932028  0.53923570
   0.11441244  0.55043462  0.27584196
   0.25268548  0.40714292  0.42184907
   0.11111000  0.55556000  0.04751000
   0.13264011  0.53477508  0.44627863
   0.99792112  0.32465568  0.36229020
   0.22222000  0.44444000  0.19748000
   0.33333000  0.33333000  0.12250000
   0.33618168  0.32931187  0.52787902
   0.44235705  0.55764295  0.27521700
   0.51512715  0.48487285  0.42138614
   0.44444000  0.55556000  0.04751000
   0.39982020  0.60017980  0.49540684
   0.33984925  0.32284264  0.34071622
   0.55556000  0.44444000  0.19748000
   0.66667000  0.33333000  0.12250000
   0.66092450  0.33907550  0.55267057
   0.78221518  0.55226252  0.27015890
   0.89110451  0.44396559  0.42118451
   0.77778000  0.55556000  0.04751000
   0.75790689  0.55434897  0.43451523
   0.66807105  0.33192895  0.34398421
   0.88889000  0.44444000  0.19748000
   0.00000000  0.66667000  0.12250000
   0.00259615  0.67535139  0.55133636
   0.11536922  0.88463078  0.27068584
   0.22404279  0.77595721  0.42441648
   0.11111000  0.88889000  0.04751000
   0.10322642  0.89677358  0.43323841
   0.00021849  0.66539593  0.34561843
   0.22222000  0.77778000  0.19748000
   0.33333000  0.66667000  0.12250000
   0.29174478  0.70825522  0.54224796
   0.44956538  0.88558756  0.27584196
   0.59285708  0.74731452  0.42184907
   0.44444000  0.88889000  0.04751000
   0.46522492  0.86735989  0.44627863
   0.33662322  0.66337678  0.35982971
   0.55556000  0.77778000  0.19748000
   0.66667000  0.66667000  0.12250000
   0.67068813  0.66381832  0.52787902
   0.77661023  0.89132087  0.27464845
   0.86378226  0.80024910  0.43026073
   0.77778000  0.88889000  0.04751000
   0.72704041  0.93641184  0.48396601
   0.67715736  0.66015075  0.34071622
   0.88889000  0.77778000  0.19748000
Direct configuration=     7
   0.01080186  0.98919814  0.44436121
   0.64049281  0.02016976  0.46566966
   0.97983024  0.35950719  0.46566966
   0.34454031  0.32585777  0.44429630
   0.31487869  0.68512131  0.45815150
   0.67414223  0.65545969  0.44429630
   0.22666932  0.10699202  0.30653562
   0.11111000  0.22222000  0.15999000
   0.33181789  0.00377391  0.46136451
   0.55909018  0.11049026  0.31058436
   0.44444000  0.22222000  0.15999000
   0.89032954  0.10967046  0.31342753
   0.77778000  0.22222000  0.15999000
   0.22247141  0.44116670  0.31182268
   0.11111000  0.55556000  0.15999000
   0.55917362  0.44082638  0.30708811
   0.44444000  0.55556000  0.15999000
   0.67099229  0.32900771  0.46374256
   0.88950974  0.44090982  0.31058436
   0.77778000  0.55556000  0.15999000
   0.99622609  0.66818211  0.46136451
   0.22386556  0.77613444  0.31160009
   0.11111000  0.88889000  0.15999000
   0.55883330  0.77752859  0.31182268
   0.44444000  0.88889000  0.15999000
   0.89300798  0.77333068  0.30653562
   0.77778000  0.88889000  0.15999000
   0.00000000  0.00000000  0.12250000
   0.00425226  0.99574774  0.52748047
   0.10872126  0.22342990  0.27466707
   0.19975371  0.13620705  0.43024659
   0.11111000  0.22222000  0.04751000
   0.06358540  0.27296419  0.48395938
   0.00957840  0.99042160  0.34244314
   0.22222000  0.11111000  0.19748000
   0.33333000  0.00000000  0.12250000
   0.32465420  0.99740474  0.55131429
   0.44774061  0.21773921  0.27018091
   0.55602426  0.10889755  0.42113275
   0.44444000  0.22222000  0.04751000
   0.44565553  0.24210175  0.43451172
   0.33464499  0.99982502  0.34557350
   0.55556000  0.11111000  0.19748000
   0.66667000  0.00000000  0.12250000
   0.59068276  0.05308746  0.53922090
   0.78259411  0.21740589  0.27525482
   0.92309338  0.07690662  0.42333206
   0.77778000  0.22222000  0.04751000
   0.79663631  0.20336369  0.45965221
   0.67531328  0.00206789  0.36224722
   0.88889000  0.11111000  0.19748000
   0.00000000  0.33333000  0.12250000
   0.94691254  0.40931724  0.53922090
   0.11438473  0.55037238  0.27586323
   0.25267267  0.40716134  0.42182541
   0.11111000  0.55556000  0.04751000
   0.13262993  0.53476534  0.44627096
   0.99793211  0.32468672  0.36224722
   0.22222000  0.44444000  0.19748000
   0.33333000  0.33333000  0.12250000
   0.33617620  0.32931121  0.52788157
   0.44232866  0.55767134  0.27524311
   0.51512856  0.48487144  0.42137285
   0.44444000  0.55556000  0.04751000
   0.39983529  0.60016471  0.49541060
   0.33981582  0.32281972  0.34068489
   0.55556000  0.44444000  0.19748000
   0.66667000  0.33333000  0.12250000
   0.66092804  0.33907196  0.55267136
   0.78226079  0.55225939  0.27018091
   0.89110245  0.44397574  0.42113275
   0.77778000  0.55556000  0.04751000
   0.75789825  0.55434447  0.43451172
   0.66810232  0.33189768  0.34394603
   0.88889000  0.44444000  0.19748000
   0.00000000  0.66667000  0.12250000
   0.00259526  0.67534580  0.55131429
   0.11535070  0.88464930  0.27070119
   0.22406151  0.77593849  0.42440819
   0.11111000  0.88889000  0.04751000
   0.10322874  0.89677126  0.43323716
   0.00017498  0.66535501  0.34557350
   0.22222000  0.77778000  0.19748000
   0.33333000  0.66667000  0.12250000
   0.29175556  0.70824444  0.54221346
   0.44962762  0.88561527  0.27586323
   0.59283866  0.74732733  0.42182541
   0.44444000  0.88889000  0.04751000
   0.46523466  0.86737007  0.44627096
   0.33663788  0.66336212  0.35979737
   0.55556000  0.77778000  0.19748000
   0.66667000  0.66667000  0.12250000
   0.67068879  0.66382380  0.52788157
   0.77657010  0.89127874  0.27466707
   0.86379295  0.80024629  0.43024659
   0.77778000  0.88889000  0.04751000
   0.72703581  0.93641460  0.48395938
   0.67718028  0.66018418  0.34068489
   0.88889000  0.77778000  0.19748000
Direct configuration=     8
   0.01081968  0.98918032  0.44522789
   0.64102219  0.01991504  0.46527472
   0.98008496  0.35897781  0.46527472
   0.34392143  0.32494691  0.44551573
   0.31620765  0.68379235  0.45854358
   0.67505309  0.65607857  0.44551573
   0.22624324  0.10681503  0.30656531
   0.11111000  0.22222000  0.15999000
   0.33180353  0.00361972  0.46156067
   0.55893266  0.11019262  0.31024742
   0.44444000  0.22222000  0.15999000
   0.89041542  0.10958458  0.31327029
   0.77778000  0.22222000  0.15999000
   0.22252413  0.44124959  0.31194025
   0.11111000  0.55556000  0.15999000
   0.55934934  0.44065066  0.30713315
   0.44444000  0.55556000  0.15999000
   0.67125803  0.32874197  0.46380555
   0.88980738  0.44106734  0.31024742
   0.77778000  0.55556000  0.15999000
   0.99638028  0.66819647  0.46156067
   0.22391357  0.77608643  0.31143416
   0.11111000  0.88889000  0.15999000
   0.55875041  0.77747587  0.31194025
   0.44444000  0.88889000  0.15999000
   0.89318497  0.77375676  0.30656531
   0.77778000  0.88889000  0.15999000
   0.00000000  0.00000000  0.12250000
   0.00435377  0.99564623  0.52722258
   0.10862889  0.22351494  0.27481968
   0.19943935  0.13665823  0.43039959
   0.11111000  0.22222000  0.04751000
   0.06299542  0.27315342  0.48407162
   0.00924669  0.99075331  0.34271931
   0.22222000  0.11111000  0.19748000
   0.33333000  0.00000000  0.12250000
   0.32458123  0.99727700  0.55128003
   0.44795074  0.21815795  0.27029911
   0.55660991  0.10917054  0.42138306
   0.44444000  0.22222000  0.04751000
   0.44456901  0.24172756  0.43416263
   0.33414466  0.99967605  0.34571667
   0.55556000  0.11111000  0.19748000
   0.66667000  0.00000000  0.12250000
   0.59067538  0.05308216  0.53950120
   0.78247223  0.21752777  0.27517836
   0.92343706  0.07656294  0.42353203
   0.77778000  0.22222000  0.04751000
   0.79645820  0.20354180  0.45968108
   0.67500300  0.00164801  0.36232576
   0.88889000  0.11111000  0.19748000
   0.00000000  0.33333000  0.12250000
   0.94691784  0.40932462  0.53950120
   0.11462129  0.55071022  0.27596390
   0.25230077  0.40730498  0.42165106
   0.11111000  0.55556000  0.04751000
   0.13260881  0.53446323  0.44648889
   0.99835199  0.32499700  0.36232576
   0.22222000  0.44444000  0.19748000
   0.33333000  0.33333000  0.12250000
   0.33654529  0.32949766  0.52691074
   0.44245335  0.55754665  0.27518891
   0.51487688  0.48512312  0.42179820
   0.44444000  0.55556000  0.04751000
   0.39855849  0.60144151  0.49503246
   0.33994211  0.32304582  0.34110837
   0.55556000  0.44444000  0.19748000
   0.66667000  0.33333000  0.12250000
   0.66078339  0.33921661  0.55319349
   0.78184205  0.55204926  0.27029911
   0.89082946  0.44339009  0.42138306
   0.77778000  0.55556000  0.04751000
   0.75827244  0.55543099  0.43416263
   0.66781131  0.33218869  0.34429101
   0.88889000  0.44444000  0.19748000
   0.00000000  0.66667000  0.12250000
   0.00272300  0.67541877  0.55128003
   0.11545842  0.88454158  0.27069095
   0.22309942  0.77690058  0.42423562
   0.11111000  0.88889000  0.04751000
   0.10292152  0.89707848  0.43277744
   0.00032395  0.66585534  0.34571667
   0.22222000  0.77778000  0.19748000
   0.33333000  0.66667000  0.12250000
   0.29135274  0.70864726  0.54292762