unknown system                          
           1
    11.598200    0.000000    0.000000
    -5.799100   10.044336    0.000000
     0.000000    0.000000   21.048200
   Ir   Ce   O 
     6    21    72
Direct configuration=     1
   0.00000000  0.00000000  0.45993000
   0.66667000  0.00000000  0.45993000
   0.00000000  0.33333000  0.45993000
   0.33333000  0.33333000  0.45993000
   0.33333000  0.66667000  0.45993000
   0.66667000  0.66667000  0.45993000
   0.22222000  0.11111000  0.30996000
   0.11111000  0.22222000  0.15999000
   0.33333000  0.00000000  0.45993000
   0.55556000  0.11111000  0.30996000
   0.44444000  0.22222000  0.15999000
   0.88889000  0.11111000  0.30996000
   0.77778000  0.22222000  0.15999000
   0.22222000  0.44444000  0.30996000
   0.11111000  0.55556000  0.15999000
   0.55556000  0.44444000  0.30996000
   0.44444000  0.55556000  0.15999000
   0.66667000  0.33333000  0.45993000
   0.88889000  0.44444000  0.30996000
   0.77778000  0.55556000  0.15999000
   0.00000000  0.66667000  0.45993000
   0.22222000  0.77778000  0.30996000
   0.11111000  0.88889000  0.15999000
   0.55556000  0.77778000  0.30996000
   0.44444000  0.88889000  0.15999000
   0.88889000  0.77778000  0.30996000
   0.77778000  0.88889000  0.15999000
   0.00000000  0.00000000  0.12250000
   0.00000000  0.00000000  0.57241000
   0.11111000  0.22222000  0.27247000
   0.22222000  0.11111000  0.42244000
   0.11111000  0.22222000  0.04751000
   0.11111000  0.22222000  0.49742000
   0.00000000  0.00000000  0.34745000
   0.22222000  0.11111000  0.19748000
   0.33333000  0.00000000  0.12250000
   0.33333000  0.00000000  0.57241000
   0.44444000  0.22222000  0.27247000
   0.55556000  0.11111000  0.42244000
   0.44444000  0.22222000  0.04751000
   0.44444000  0.22222000  0.49742000
   0.33333000  0.00000000  0.34745000
   0.55556000  0.11111000  0.19748000
   0.66667000  0.00000000  0.12250000
   0.66667000  0.00000000  0.57241000
   0.77778000  0.22222000  0.27247000
   0.88889000  0.11111000  0.42244000
   0.77778000  0.22222000  0.04751000
   0.77778000  0.22222000  0.49742000
   0.66667000  0.00000000  0.34745000
   0.88889000  0.11111000  0.19748000
   0.00000000  0.33333000  0.12250000
   0.00000000  0.33333000  0.57241000
   0.11111000  0.55556000  0.27247000
   0.22222000  0.44444000  0.42244000
   0.11111000  0.55556000  0.04751000
   0.11111000  0.55556000  0.49742000
   0.00000000  0.33333000  0.34745000
   0.22222000  0.44444000  0.19748000
   0.33333000  0.33333000  0.12250000
   0.33333000  0.33333000  0.57241000
   0.44444000  0.55556000  0.27247000
   0.55556000  0.44444000  0.42244000
   0.44444000  0.55556000  0.04751000
   0.44444000  0.55556000  0.49742000
   0.33333000  0.33333000  0.34745000
   0.55556000  0.44444000  0.19748000
   0.66667000  0.33333000  0.12250000
   0.66667000  0.33333000  0.57241000
   0.77778000  0.55556000  0.27247000
   0.88889000  0.44444000  0.42244000
   0.77778000  0.55556000  0.04751000
   0.77778000  0.55556000  0.49742000
   0.66667000  0.33333000  0.34745000
   0.88889000  0.44444000  0.19748000
   0.00000000  0.66667000  0.12250000
   0.00000000  0.66667000  0.57241000
   0.11111000  0.88889000  0.27247000
   0.22222000  0.77778000  0.42244000
   0.11111000  0.88889000  0.04751000
   0.11111000  0.88889000  0.49742000
   0.00000000  0.66667000  0.34745000
   0.22222000  0.77778000  0.19748000
   0.33333000  0.66667000  0.12250000
   0.33333000  0.66667000  0.57241000
   0.44444000  0.88889000  0.27247000
   0.55556000  0.77778000  0.42244000
   0.44444000  0.88889000  0.04751000
   0.44444000  0.88889000  0.49742000
   0.33333000  0.66667000  0.34745000
   0.55556000  0.77778000  0.19748000
   0.66667000  0.66667000  0.12250000
   0.66667000  0.66667000  0.57241000
   0.77778000  0.88889000  0.27247000
   0.88889000  0.77778000  0.42244000
   0.77778000  0.88889000  0.04751000
   0.77778000  0.88889000  0.49742000
   0.66667000  0.66667000  0.34745000
   0.88889000  0.77778000  0.19748000
Direct configuration=     2
   0.99958083  0.00041917  0.46352900
   0.66675661  0.99989644  0.46325413
   0.00010356  0.33324339  0.46325413
   0.33336204  0.33349911  0.46349532
   0.33339593  0.66660407  0.46335116
   0.66650089  0.66663796  0.46349532
   0.22204321  0.11072193  0.30931716
   0.11111000  0.22222000  0.15999000
   0.33351899  0.00083711  0.46238556
   0.55531617  0.11131759  0.30934204
   0.44444000  0.22222000  0.15999000
   0.88910848  0.11089152  0.30905194
   0.77778000  0.22222000  0.15999000
   0.22221949  0.44440032  0.30908799
   0.11111000  0.55556000  0.15999000
   0.55575669  0.44424331  0.30902540
   0.44444000  0.55556000  0.15999000
   0.66639778  0.33360222  0.46179048
   0.88868241  0.44468383  0.30934204
   0.77778000  0.55556000  0.15999000
   0.99916289  0.66648101  0.46238556
   0.22200105  0.77799895  0.30952830
   0.11111000  0.88889000  0.15999000
   0.55559968  0.77778051  0.30908799
   0.44444000  0.88889000  0.15999000
   0.88927807  0.77795679  0.30931716
   0.77778000  0.88889000  0.15999000
   0.00000000  0.00000000  0.12250000
   0.00014700  0.99985300  0.56756559
   0.11113157  0.22245461  0.27295103
   0.21813318  0.11498786  0.42494443
   0.11111000  0.22222000  0.04751000
   0.11084967  0.22213703  0.49348269
   0.99990731  0.00009269  0.35048101
   0.22222000  0.11111000  0.19748000
   0.33333000  0.00000000  0.12250000
   0.33356722  0.00033305  0.57168981
   0.44419284  0.22235452  0.27303016
   0.55913321  0.10755888  0.42377034
   0.44444000  0.22222000  0.04751000
   0.44058282  0.22566948  0.49522416
   0.33308492  0.00045773  0.34765124
   0.55556000  0.11111000  0.19748000
   0.66667000  0.00000000  0.12250000
   0.66643366  0.99997706  0.56574253
   0.77803408  0.22196592  0.27302009
   0.88906403  0.11093597  0.42717548
   0.77778000  0.22222000  0.04751000
   0.78266211  0.21733789  0.49495769
   0.66694205  0.99964835  0.35101986
   0.88889000  0.11111000  0.19748000
   0.00000000  0.33333000  0.12250000
   0.00002294  0.33356634  0.56574253
   0.11134218  0.55516226  0.27295220
   0.22249662  0.44417402  0.42723088
   0.11111000  0.55556000  0.04751000
   0.11592398  0.55053058  0.49498980
   0.00035165  0.33305795  0.35101986
   0.22222000  0.44444000  0.19748000
   0.33333000  0.33333000  0.12250000
   0.33341802  0.33406242  0.56559136
   0.44430732  0.55569268  0.27286636
   0.55142675  0.44857325  0.42501559
   0.44444000  0.55556000  0.04751000
   0.44422912  0.55577088  0.49383261
   0.33324019  0.33341526  0.35103523
   0.55556000  0.44444000  0.19748000
   0.66667000  0.33333000  0.12250000
   0.66661864  0.33338136  0.57249479
   0.77764548  0.55580716  0.27303016
   0.89244112  0.44086679  0.42377034
   0.77778000  0.55556000  0.04751000
   0.77433052  0.55941718  0.49522416
   0.66633299  0.33366701  0.34770309
   0.88889000  0.44444000  0.19748000
   0.00000000  0.66667000  0.12250000
   0.99966695  0.66643278  0.57168981
   0.11089330  0.88910670  0.27294093
   0.22566545  0.77433455  0.42379682
   0.11111000  0.88889000  0.04751000
   0.10728077  0.89271923  0.49528192
   0.99954227  0.66691508  0.34765124
   0.22222000  0.77778000  0.19748000
   0.33333000  0.66667000  0.12250000
   0.33345077  0.66654923  0.56583827
   0.44483774  0.88865782  0.27295220
   0.55582598  0.77750338  0.42723088
   0.44444000  0.88889000  0.04751000
   0.44946942  0.88407602  0.49498980
   0.33371458  0.66628542  0.35089298
   0.55556000  0.77778000  0.19748000
   0.66667000  0.66667000  0.12250000
   0.66593758  0.66658198  0.56559136
   0.77754539  0.88886843  0.27295103
   0.88501214  0.78186682  0.42494443
   0.77778000  0.88889000  0.04751000
   0.77786297  0.88915033  0.49348269
   0.66658474  0.66675981  0.35103523
   0.88889000  0.77778000  0.19748000
Direct configuration=     3
   0.99902446  0.00097554  0.46830601
   0.66687157  0.99975899  0.46766629
   0.00024101  0.33312843  0.46766629
   0.33340458  0.33372357  0.46822762
   0.33348343  0.66651657  0.46789213
   0.66627643  0.66659542  0.46822762
   0.22180856  0.11020683  0.30846392
   0.11111000  0.22222000  0.15999000
   0.33376983  0.00194821  0.46564487
   0.55499253  0.11159314  0.30852182
   0.44444000  0.22222000  0.15999000
   0.88939848  0.11060152  0.30784667
   0.77778000  0.22222000  0.15999000
   0.22221882  0.44434766  0.30793056
   0.11111000  0.55556000  0.15999000
   0.55601777  0.44398223  0.30778489
   0.44444000  0.55556000  0.15999000
   0.66603645  0.33396355  0.46425993
   0.88840686  0.44500747  0.30852182
   0.77778000  0.55556000  0.15999000
   0.99805179  0.66623017  0.46564487
   0.22171043  0.77828957  0.30895530
   0.11111000  0.88889000  0.15999000
   0.55565234  0.77778118  0.30793056
   0.44444000  0.88889000  0.15999000
   0.88979317  0.77819144  0.30846392
   0.77778000  0.88889000  0.15999000
   0.00000000  0.00000000  0.12250000
   0.00034212  0.99965788  0.56113552
   0.11116021  0.22276601  0.27358951
   0.21270867  0.12013501  0.42826861
   0.11111000  0.22222000  0.04751000
   0.11050414  0.22202690  0.48825664
   0.99978429  0.00021571  0.35450411
   0.22222000  0.11111000  0.19748000
   0.33333000  0.00000000  0.12250000
   0.33388208  0.00077511  0.57073389
   0.44386479  0.22253308  0.27377367
   0.56387600  0.10284542  0.42553611
   0.44444000  0.22222000  0.04751000
   0.43546312  0.23024803  0.49230958
   0.33275962  0.00106529  0.34791835
   0.55556000  0.11111000  0.19748000
   0.66667000  0.00000000  0.12250000
   0.66611996  0.99994662  0.55689268
   0.77837131  0.22162869  0.27375024
   0.88929503  0.11070497  0.43346095
   0.77778000  0.22222000  0.04751000
   0.78914220  0.21085780  0.49168943
   0.66730315  0.99918159  0.35575820
   0.88889000  0.11111000  0.19748000
   0.00000000  0.33333000  0.12250000
   0.00005338  0.33388004  0.55689268
   0.11165035  0.55463434  0.27359222
   0.22286378  0.44382098  0.43358989
   0.11111000  0.55556000  0.04751000
   0.12231366  0.54385494  0.49176415
   0.00081841  0.33269685  0.35575820
   0.22222000  0.44444000  0.19748000
   0.33333000  0.33333000  0.12250000
   0.33353485  0.33503457  0.55654088
   0.44413120  0.55586880  0.27339246
   0.54594063  0.45405937  0.42843421
   0.44444000  0.55556000  0.04751000
   0.44394921  0.55605079  0.48907100
   0.33312098  0.33352843  0.35579396
   0.55556000  0.44444000  0.19748000
   0.66667000  0.33333000  0.12250000
   0.66655047  0.33344953  0.57260734
   0.77746692  0.55613521  0.27377367
   0.89715458  0.43612400  0.42553611
   0.77778000  0.55556000  0.04751000
   0.76975197  0.56453688  0.49230958
   0.66588568  0.33411432  0.34803902
   0.88889000  0.44444000  0.19748000
   0.00000000  0.66667000  0.12250000
   0.99922489  0.66611792  0.57073389
   0.11060567  0.88939433  0.27356600
   0.23023864  0.76976136  0.42559775
   0.11111000  0.88889000  0.04751000
   0.10219817  0.89780183  0.49244401
   0.99893471  0.66724038  0.34791835
   0.22222000  0.77778000  0.19748000
   0.33333000  0.66667000  0.12250000
   0.33361106  0.66638894  0.55711552
   0.44536566  0.88834965  0.27359222
   0.55617902  0.77713622  0.43358989
   0.44444000  0.88889000  0.04751000
   0.45614506  0.87768634  0.49176415
   0.33422504  0.66577496  0.35546289
   0.55556000  0.77778000  0.19748000
   0.66667000  0.66667000  0.12250000
   0.66496543  0.66646515  0.55654088
   0.77723399  0.88883979  0.27358951
   0.87986499  0.78729133  0.42826861
   0.77778000  0.88889000  0.04751000
   0.77797310  0.88949586  0.48825664
   0.66647157  0.66687902  0.35579396
   0.88889000  0.77778000  0.19748000
Direct configuration=     4
   0.99791172  0.00208828  0.47786002
   0.66710148  0.99948408  0.47649063
   0.00051592  0.33289852  0.47649063
   0.33348964  0.33417248  0.47769223
   0.33365844  0.66634156  0.47697406
   0.66582752  0.66651036  0.47769223
   0.22133926  0.10917664  0.30675743
   0.11111000  0.22222000  0.15999000
   0.33427152  0.00417043  0.47216349
   0.55434525  0.11214422  0.30688137
   0.44444000  0.22222000  0.15999000
   0.88997846  0.11002154  0.30543611
   0.77778000  0.22222000  0.15999000
   0.22221747  0.44424234  0.30561570
   0.11111000  0.55556000  0.15999000
   0.55653992  0.44346008  0.30530388
   0.44444000  0.55556000  0.15999000
   0.66531380  0.33468620  0.46919882
   0.88785578  0.44565475  0.30688137
   0.77778000  0.55556000  0.15999000
   0.99582957  0.66572848  0.47216349
   0.22112920  0.77887080  0.30780929
   0.11111000  0.88889000  0.15999000
   0.55575766  0.77778253  0.30561570
   0.44444000  0.88889000  0.15999000
   0.89082336  0.77866074  0.30675743
   0.77778000  0.88889000  0.15999000
   0.00000000  0.00000000  0.12250000
   0.00073236  0.99926764  0.54827539
   0.11121748  0.22338881  0.27486647
   0.20185966  0.13042930  0.43491696
   0.11111000  0.22222000  0.04751000
   0.10981307  0.22180665  0.47780454
   0.99953824  0.00046176  0.36255032
   0.22222000  0.11111000  0.19748000
   0.33333000  0.00000000  0.12250000
   0.33451181  0.00165923  0.56882204
   0.44320868  0.22289019  0.27526070
   0.57336156  0.09341851  0.42906766
   0.44444000  0.22222000  0.04751000
   0.42522372  0.23940514  0.48648044
   0.33210901  0.00228041  0.34845257
   0.55556000  0.11111000  0.19748000
   0.66667000  0.00000000  0.12250000
   0.66549256  0.99988573  0.53919300
   0.77904579  0.22095421  0.27521053
   0.88975702  0.11024298  0.44603189
   0.77778000  0.22222000  0.04751000
   0.80210240  0.19789760  0.48515290
   0.66802534  0.99824808  0.36523488
   0.88889000  0.11111000  0.19748000
   0.00000000  0.33333000  0.12250000
   0.00011427  0.33450744  0.53919300
   0.11226670  0.55357850  0.27487227
   0.22359809  0.44311490  0.44630792
   0.11111000  0.55556000  0.04751000
   0.13509301  0.53050367  0.48531286
   0.00175192  0.33197466  0.36523488
   0.22222000  0.44444000  0.19748000
   0.33333000  0.33333000  0.12250000
   0.33376850  0.33697888  0.53843990
   0.44377897  0.55622103  0.27444466
   0.53496838  0.46503162  0.43527146
   0.44444000  0.55556000  0.04751000
   0.44338939  0.55661061  0.47954780
   0.33288256  0.33375477  0.36531143
   0.55556000  0.44444000  0.19748000
   0.66667000  0.33333000  0.12250000
   0.66641412  0.33358588  0.57283244
   0.77710981  0.55679132  0.27526070
   0.90658149  0.42663844  0.42906766
   0.77778000  0.55556000  0.04751000
   0.76059486  0.57477628  0.48648044
   0.66499105  0.33500895  0.34871087
   0.88889000  0.44444000  0.19748000
   0.00000000  0.66667000  0.12250000
   0.99834077  0.66548819  0.56882204
   0.11003041  0.88996959  0.27481614
   0.23938503  0.76061497  0.42919961
   0.11111000  0.88889000  0.04751000
   0.09203298  0.90796702  0.48676818
   0.99771959  0.66789099  0.34845257
   0.22222000  0.77778000  0.19748000
   0.33333000  0.66667000  0.12250000
   0.33393166  0.66606834  0.53967001
   0.44642150  0.88773330  0.27487227
   0.55688510  0.77640191  0.44630792
   0.44444000  0.88889000  0.04751000
   0.46949633  0.86490699  0.48531286
   0.33524596  0.66475404  0.36460273
   0.55556000  0.77778000  0.19748000
   0.66667000  0.66667000  0.12250000
   0.66302112  0.66623150  0.53843990
   0.77661119  0.88878252  0.27486647
   0.86957070  0.79814034  0.43491696
   0.77778000  0.88889000  0.04751000
   0.77819335  0.89018693  0.47780454
   0.66624523  0.66711744  0.36531143
   0.88889000  0.77778000  0.19748000
Direct configuration=     5
   0.99899039  0.00100961  0.46859850
   0.66687861  0.99975057  0.46793645
   0.00024943  0.33312139  0.46793645
   0.33340718  0.33373731  0.46851738
   0.33348879  0.66651121  0.46817017
   0.66626269  0.66659282  0.46851738
   0.22179420  0.11017529  0.30841168
   0.11111000  0.22222000  0.15999000
   0.33378519  0.00201625  0.46584444
   0.55497272  0.11161001  0.30847160
   0.44444000  0.22222000  0.15999000
   0.88941623  0.11058377  0.30777287
   0.77778000  0.22222000  0.15999000
   0.22221878  0.44434444  0.30785969
   0.11111000  0.55556000  0.15999000
   0.55603376  0.44396624  0.30770894
   0.44444000  0.55556000  0.15999000
   0.66601433  0.33398567  0.46441113
   0.88838999  0.44502728  0.30847160
   0.77778000  0.55556000  0.15999000
   0.99798375  0.66621481  0.46584444
   0.22169264  0.77830736  0.30892021
   0.11111000  0.88889000  0.15999000
   0.55565556  0.77778122  0.30785969
   0.44444000  0.88889000  0.15999000
   0.88982471  0.77820580  0.30841168
   0.77778000  0.88889000  0.15999000
   0.00000000  0.00000000  0.12250000
   0.00035407  0.99964593  0.56074181
   0.11116196  0.22278508  0.27362861
   0.21237653  0.12045017  0.42847215
   0.11111000  0.22222000  0.04751000
   0.11048298  0.22202016  0.48793665
   0.99977676  0.00022324  0.35475045
   0.22222000  0.11111000  0.19748000
   0.33333000  0.00000000  0.12250000
   0.33390136  0.00080218  0.57067535
   0.44384470  0.22254401  0.27381920
   0.56416640  0.10255682  0.42564423
   0.44444000  0.22222000  0.04751000
   0.43514964  0.23052838  0.49213113
   0.33273970  0.00110249  0.34793471
   0.55556000  0.11111000  0.19748000
   0.66667000  0.00000000  0.12250000
   0.66610075  0.99994476  0.55635081
   0.77839196  0.22160804  0.27379494
   0.88930917  0.11069083  0.43384581
   0.77778000  0.22222000  0.04751000
   0.78953898  0.21046102  0.49148931
   0.66732526  0.99915301  0.35604833
   0.88889000  0.11111000  0.19748000
   0.00000000  0.33333000  0.12250000
   0.00005524  0.33389925  0.55635081
   0.11166922  0.55460202  0.27363141
   0.22288626  0.44379936  0.43397926
   0.11111000  0.55556000  0.04751000
   0.12270490  0.54344619  0.49156664
   0.00084699  0.33267474  0.35604833
   0.22222000  0.44444000  0.19748000
   0.33333000  0.33333000  0.12250000
   0.33354200  0.33509410  0.55598671
   0.44412042  0.55587958  0.27342467
   0.54560471  0.45439529  0.42864354
   0.44444000  0.55556000  0.04751000
   0.44393207  0.55606793  0.48877945
   0.33311368  0.33353536  0.35608534
   0.55556000  0.44444000  0.19748000
   0.66667000  0.33333000  0.12250000
   0.66654629  0.33345371  0.57261423
   0.77745599  0.55615530  0.27381920
   0.89744318  0.43583360  0.42564423
   0.77778000  0.55556000  0.04751000
   0.76947162  0.56485036  0.49213113
   0.66585829  0.33414171  0.34805958
   0.88889000  0.44444000  0.19748000
   0.00000000  0.66667000  0.12250000
   0.99919782  0.66609864  0.57067535
   0.11058806  0.88941194  0.27360427
   0.23051866  0.76948134  0.42570802
   0.11111000  0.88889000  0.04751000
   0.10188697  0.89811303  0.49227024
   0.99889751  0.66726030  0.34793471
   0.22222000  0.77778000  0.19748000
   0.33333000  0.66667000  0.12250000
   0.33362088  0.66637912  0.55658142
   0.44539798  0.88833078  0.27363141
   0.55620064  0.77711374  0.43397926
   0.44444000  0.88889000  0.04751000
   0.45655381  0.87729510  0.49156664
   0.33425630  0.66574370  0.35574271
   0.55556000  0.77778000  0.19748000
   0.66667000  0.66667000  0.12250000
   0.66490590  0.66645800  0.55598671
   0.77721492  0.88883804  0.27362861
   0.87954983  0.78762347  0.42847215
   0.77778000  0.88889000  0.04751000
   0.77797984  0.88951702  0.48793665
   0.66646464  0.66688632  0.35608534
   0.88889000  0.77778000  0.19748000
Direct configuration=     6
   0.99864432  0.00135568  0.47156994
   0.66695011  0.99966507  0.47068095
   0.00033493  0.33304989  0.47068095
   0.33343364  0.33387693  0.47146102
   0.33354322  0.66645678  0.47099479
   0.66612307  0.66656636  0.47146102
   0.22164824  0.10985489  0.30788093
   0.11111000  0.22222000  0.15999000
   0.33394123  0.00270739  0.46787182
   0.55477140  0.11178140  0.30796139
   0.44444000  0.22222000  0.15999000
   0.88959662  0.11040338  0.30702315
   0.77778000  0.22222000  0.15999000
   0.22221836  0.44431168  0.30713973
   0.11111000  0.55556000  0.15999000
   0.55619615  0.44380385  0.30693730
   0.44444000  0.55556000  0.15999000
   0.66578957  0.33421043  0.46594720
   0.88821860  0.44522860  0.30796139
   0.77778000  0.55556000  0.15999000
   0.99729261  0.66605877  0.46787182
   0.22151186  0.77848814  0.30856379
   0.11111000  0.88889000  0.15999000
   0.55568832  0.77778164  0.30713973
   0.44444000  0.88889000  0.15999000
   0.89014511  0.77835176  0.30788093
   0.77778000  0.88889000  0.15999000
   0.00000000  0.00000000  0.12250000
   0.00047544  0.99952456  0.55674212
   0.11117977  0.22297878  0.27402576
   0.20900232  0.12365185  0.43053989
   0.11111000  0.22222000  0.04751000
   0.11026805  0.22195166  0.48468589
   0.99970023  0.00029977  0.35725294
   0.22222000  0.11111000  0.19748000
   0.33333000  0.00000000  0.12250000
   0.33409722  0.00107715  0.57008074
   0.44364064  0.22265508  0.27428168
   0.56711655  0.09962491  0.42674260
   0.44444000  0.22222000  0.04751000
   0.43196503  0.23337638  0.49031817
   0.33253735  0.00148041  0.34810086
   0.55556000  0.11111000  0.19748000
   0.66667000  0.00000000  0.12250000
   0.66590562  0.99992582  0.55084594
   0.77860173  0.22139827  0.27424912
   0.88945286  0.11054714  0.43775556
   0.77778000  0.22222000  0.04751000
   0.79356979  0.20643021  0.48945635
   0.66754987  0.99886268  0.35899572
   0.88889000  0.11111000  0.19748000
   0.00000000  0.33333000  0.12250000
   0.00007418  0.33409438  0.55084594
   0.11186092  0.55427363  0.27402952
   0.22311464  0.44357976  0.43793475
   0.11111000  0.55556000  0.04751000
   0.12667947  0.53929375  0.48956020
   0.00113732  0.33245013  0.35899572
   0.22222000  0.44444000  0.19748000
   0.33333000  0.33333000  0.12250000
   0.33361467  0.33569880  0.55035704
   0.44401087  0.55598913  0.27375192
   0.54219218  0.45780782  0.43077002
   0.44444000  0.55556000  0.04751000
   0.44375796  0.55624204  0.48581759
   0.33303952  0.33360576  0.35904541
   0.55556000  0.44444000  0.19748000
   0.66667000  0.33333000  0.12250000
   0.66650389  0.33349611  0.57268424
   0.77734492  0.55635936  0.27428168
   0.90037509  0.43288345  0.42674260
   0.77778000  0.55556000  0.04751000
   0.76662362  0.56803497  0.49031817
   0.66558004  0.33441996  0.34826854
   0.88889000  0.44444000  0.19748000
   0.00000000  0.66667000  0.12250000
   0.99892285  0.66590278  0.57008074
   0.11040914  0.88959086  0.27399309
   0.23336332  0.76663668  0.42682825
   0.11111000  0.88889000  0.04751000
   0.09872544  0.90127456  0.49050497
   0.99851959  0.66746265  0.34810086
   0.22222000  0.77778000  0.19748000
   0.33333000  0.66667000  0.12250000
   0.33372059  0.66627941  0.55115561
   0.44572637  0.88813908  0.27402952
   0.55642024  0.77688536  0.43793475
   0.44444000  0.88889000  0.04751000
   0.46070625  0.87332053  0.48956020
   0.33457382  0.66542618  0.35858534
   0.55556000  0.77778000  0.19748000
   0.66667000  0.66667000  0.12250000
   0.66430120  0.66638533  0.55035704
   0.77702122  0.88882023  0.27402576
   0.87634815  0.79099768  0.43053989
   0.77778000  0.88889000  0.04751000
   0.77804834  0.88973195  0.48468589
   0.66639424  0.66696048  0.35904541
   0.88889000  0.77778000  0.19748000
Direct configuration=     7
   0.99889589  0.00110411  0.46940991
   0.66689813  0.99972723  0.46868589
   0.00027277  0.33310187  0.46868589
   0.33341440  0.33377543  0.46932120
   0.33350365  0.66649635  0.46894149
   0.66622457  0.66658560  0.46932120
   0.22175434  0.11008780  0.30826675
   0.11111000  0.22222000  0.15999000
   0.33382780  0.00220498  0.46639805
   0.55491774  0.11165681  0.30833228
   0.44444000  0.22222000  0.15999000
   0.88946549  0.11053451  0.30756814
   0.77778000  0.22222000  0.15999000
   0.22221866  0.44433549  0.30766309
   0.11111000  0.55556000  0.15999000
   0.55607810  0.44392190  0.30749823
   0.44444000  0.55556000  0.15999000
   0.66595295  0.33404705  0.46483058
   0.88834319  0.44508226  0.30833228
   0.77778000  0.55556000  0.15999000
   0.99779502  0.66617220  0.46639805
   0.22164327  0.77835673  0.30882288
   0.11111000  0.88889000  0.15999000
   0.55566451  0.77778134  0.30766309
   0.44444000  0.88889000  0.15999000
   0.88991220  0.77824566  0.30826675
   0.77778000  0.88889000  0.15999000
   0.00000000  0.00000000  0.12250000
   0.00038721  0.99961279  0.55964962
   0.11116683  0.22283797  0.27373706
   0.21145514  0.12132444  0.42903678
   0.11111000  0.22222000  0.04751000
   0.11042429  0.22200146  0.48704897
   0.99975586  0.00024414  0.35543380
   0.22222000  0.11111000  0.19748000
   0.33333000  0.00000000  0.12250000
   0.33395484  0.00087726  0.57051298
   0.44378898  0.22257434  0.27394549
   0.56497199  0.10175621  0.42594416
   0.44444000  0.22222000  0.04751000
   0.43428003  0.23130608  0.49163607
   0.33268444  0.00120569  0.34798008
   0.55556000  0.11111000  0.19748000
   0.66667000  0.00000000  0.12250000
   0.66604747  0.99993959  0.55484760
   0.77844924  0.22155076  0.27391896
   0.88934841  0.11065159  0.43491343
   0.77778000  0.22222000  0.04751000
   0.79063967  0.20936033  0.49093417
   0.66738659  0.99907373  0.35685317
   0.88889000  0.11111000  0.19748000
   0.00000000  0.33333000  0.12250000
   0.00006041  0.33395253  0.55484760
   0.11172157  0.55451235  0.27374012
   0.22294862  0.44373940  0.43505938
   0.11111000  0.55556000  0.04751000
   0.12379023  0.54231229  0.49101875
   0.00092627  0.33261341  0.35685317
   0.22222000  0.44444000  0.19748000
   0.33333000  0.33333000  0.12250000
   0.33356184  0.33525922  0.55444943
   0.44409050  0.55590950  0.27351404
   0.54467286  0.45532714  0.42922421
   0.44444000  0.55556000  0.04751000
   0.44388452  0.55611548  0.48797066
   0.33309343  0.33355458  0.35689364
   0.55556000  0.44444000  0.19748000
   0.66667000  0.33333000  0.12250000
   0.66653471  0.33346529  0.57263335
   0.77742566  0.55621102  0.27394549
   0.89824379  0.43502801  0.42594416
   0.77778000  0.55556000  0.04751000
   0.76869392  0.56571997  0.49163607
   0.66578231  0.33421769  0.34811664
   0.88889000  0.44444000  0.19748000
   0.00000000  0.66667000  0.12250000
   0.99912274  0.66604516  0.57051298
   0.11053920  0.88946080  0.27371045
   0.23129544  0.76870456  0.42601392
   0.11111000  0.88889000  0.04751000
   0.10102365  0.89897635  0.49178820
   0.99879431  0.66731556  0.34798008
   0.22222000  0.77778000  0.19748000
   0.33333000  0.66667000  0.12250000
   0.33364811  0.66635189  0.55509981
   0.44548765  0.88827843  0.27374012
   0.55626060  0.77705138  0.43505938
   0.44444000  0.88889000  0.04751000
   0.45768771  0.87620977  0.49101875
   0.33434300  0.66565700  0.35651894
   0.55556000  0.77778000  0.19748000
   0.66667000  0.66667000  0.12250000
   0.66474078  0.66643816  0.55444943
   0.77716203  0.88883317  0.27373706
   0.87867556  0.78854486  0.42903678
   0.77778000  0.88889000  0.04751000
   0.77799854  0.88957571  0.48704897
   0.66644542  0.66690657  0.35689364
   0.88889000  0.77778000  0.19748000
Direct configuration=     8
   0.99885504  0.00114496  0.46976067
   0.66690657  0.99971713  0.46900985
   0.00028287  0.33309343  0.46900985
   0.33341753  0.33379192  0.46966867
   0.33351008  0.66648992  0.46927491
   0.66620808  0.66658247  0.46966867
   0.22173711  0.11004998  0.30820410
   0.11111000  0.22222000  0.15999000
   0.33384622  0.00228656  0.46663737
   0.55489398  0.11167704  0.30827205
   0.44444000  0.22222000  0.15999000
   0.88948678  0.11051322  0.30747964
   0.77778000  0.22222000  0.15999000
   0.22221861  0.44433163  0.30757811
   0.11111000  0.55556000  0.15999000
   0.55609727  0.44390273  0.30740714
   0.44444000  0.55556000  0.15999000
   0.66592642  0.33407358  0.46501190
   0.88832296  0.44510602  0.30827205
   0.77778000  0.55556000  0.15999000
   0.99771344  0.66615378  0.46663737
   0.22162194  0.77837806  0.30878081
   0.11111000  0.88889000  0.15999000
   0.55566837  0.77778139  0.30757811
   0.44444000  0.88889000  0.15999000
   0.88995002  0.77826289  0.30820410
   0.77778000  0.88889000  0.15999000
   0.00000000  0.00000000  0.12250000
   0.00040154  0.99959846  0.55917749
   0.11116893  0.22286083  0.27378394
   0.21105684  0.12170238  0.42928086
   0.11111000  0.22222000  0.04751000
   0.11039892  0.22199337  0.48666524
   0.99974683  0.00025317  0.35572920
   0.22222000  0.11111000  0.19748000
   0.33333000  0.00000000  0.12250000
   0.33397796  0.00090972  0.57044280
   0.44376489  0.22258745  0.27400008
   0.56532023  0.10141012  0.42607381
   0.44444000  0.22222000  0.04751000
   0.43390411  0.23164226  0.49142206
   0.33266056  0.00125030  0.34799969
   0.55556000  0.11111000  0.19748000
   0.66667000  0.00000000  0.12250000
   0.66602443  0.99993735  0.55419779
   0.77847401  0.22152599  0.27397258
   0.88936537  0.11063463  0.43537495
   0.77778000  0.22222000  0.04751000
   0.79111548  0.20888452  0.49069420
   0.66741310  0.99903946  0.35720109
   0.88889000  0.11111000  0.19748000
   0.00000000  0.33333000  0.12250000
   0.00006265  0.33397557  0.55419779
   0.11174420  0.55447358  0.27378712
   0.22297558  0.44371347  0.43552629
   0.11111000  0.55556000  0.04751000
   0.12425939  0.54182213  0.49078190
   0.00096054  0.33258690  0.35720109
   0.22222000  0.44444000  0.19748000
   0.33333000  0.33333000  0.12250000
   0.33357042  0.33533060  0.55378489
   0.44407757  0.55592243  0.27355266
   0.54427003  0.45572997  0.42947523
   0.44444000  0.55556000  0.04751000
   0.44386397  0.55613603  0.48762104
   0.33308468  0.33356289  0.35724306
   0.55556000  0.44444000  0.19748000
   0.66667000  0.33333000  0.12250000
   0.66652971  0.33347029  0.57264161
   0.77741255  0.55623511  0.27400008
   0.89858988  0.43467977  0.42607381
   0.77778000  0.55556000  0.04751000
   0.76835774  0.56609589  0.49142206
   0.66574946  0.33425054  0.34814131
   0.88889000  0.44444000  0.19748000
   0.00000000  0.66667000  0.12250000
   0.99909028  0.66602204  0.57044280
   0.11051808  0.88948192  0.27375634
   0.23163124  0.76836876  0.42614616
   0.11111000  0.88889000  0.04751000
   0.10065046  0.89934954  0.49157983
   0.99874970  0.66733944  0.34799969
   0.22222000  0.77778000  0.19748000
   0.33333000  0.66667000  0.12250000
   0.33365988  0.66634012  0.55445933