       N       E                     dE             d eps       ncg     rms          rms(c)
DAV:   1     0.128523007658E+04    0.12852E+04   -0.40044E+04  4480   0.197E+03
DAV:   2     0.319796397162E+03   -0.96543E+03   -0.85727E+03  4960   0.425E+02
DAV:   3    -0.626401339381E+02   -0.38244E+03   -0.36918E+03  5920   0.230E+02
DAV:   4    -0.124370578686E+03   -0.61730E+02   -0.61020E+02  7352   0.930E+01
DAV:   5    -0.126989603009E+03   -0.26190E+01   -0.26143E+01  8056   0.226E+01    0.556E+01
DAV:   6    -0.118701487685E+03    0.82881E+01   -0.31978E+02  6104   0.597E+01    0.592E+01
DAV:   7    -0.114393011238E+03    0.43085E+01   -0.65987E+02  6944   0.146E+02    0.424E+01
DAV:   8    -0.115859670791E+03   -0.14667E+01   -0.37048E+01  7024   0.305E+01    0.306E+01
DAV:   9    -0.107736323598E+03    0.81233E+01   -0.18951E+01  6752   0.189E+01    0.121E+01
DAV:  10    -0.106120465305E+03    0.16159E+01   -0.44021E+00  7560   0.105E+01    0.716E+00
DAV:  11    -0.105781223792E+03    0.33924E+00   -0.58114E-01  8392   0.372E+00    0.635E+00
DAV:  12    -0.105634340956E+03    0.14688E+00   -0.14266E-01  7784   0.164E+00    0.559E+00
DAV:  13    -0.105747031355E+03   -0.11269E+00   -0.54804E-02  7640   0.134E+00    0.633E+00
DAV:  14    -0.104964284209E+03    0.78275E+00   -0.71847E+00  5416   0.137E+01    0.565E+00
DAV:  15    -0.104958120151E+03    0.61641E-02   -0.43232E-01  7320   0.264E+00    0.353E+00
DAV:  16    -0.104973190604E+03   -0.15070E-01   -0.59608E-02  8120   0.119E+00    0.393E+00
DAV:  17    -0.104923591248E+03    0.49599E-01   -0.46196E-01  5920   0.340E+00    0.145E+00
DAV:  18    -0.104935033385E+03   -0.11442E-01   -0.17159E-01  6640   0.202E+00    0.160E+00
DAV:  19    -0.104928151956E+03    0.68814E-02   -0.12265E-02  6904   0.594E-01    0.107E+00
DAV:  20    -0.104921155129E+03    0.69968E-02   -0.36291E-02  6152   0.944E-01    0.246E-01
DAV:  21    -0.104920895357E+03    0.25977E-03   -0.22914E-03  6864   0.252E-01    0.121E-01
DAV:  22    -0.104920944165E+03   -0.48808E-04   -0.19529E-04  7736   0.725E-02    0.107E-01
DAV:  23    -0.104920937346E+03    0.68191E-05   -0.30906E-05  7680   0.250E-02    0.733E-02
DAV:  24    -0.104920939555E+03   -0.22097E-05   -0.66346E-06  8296   0.111E-02    0.540E-02
DAV:  25    -0.104920921192E+03    0.18363E-04   -0.69423E-05  6152   0.431E-02    0.141E-02
DAV:  26    -0.104920921854E+03   -0.66238E-06   -0.28141E-06  7072   0.681E-03    0.129E-02
DAV:  27    -0.104920919880E+03    0.19737E-05   -0.97213E-06  6224   0.162E-02    0.276E-03
DAV:  28    -0.104920920009E+03   -0.12860E-06   -0.60615E-07  8160   0.334E-03    0.132E-03
DAV:  29    -0.104920920006E+03    0.25866E-08   -0.18969E-07  6232   0.227E-03    0.218E-04
DAV:  30    -0.104920919993E+03    0.13576E-07   -0.16683E-08  3416   0.637E-04    0.310E-04
DAV:  31    -0.104920920007E+03   -0.14598E-07   -0.55422E-09  3168   0.445E-04    0.147E-04
DAV:  32    -0.104920919985E+03    0.22425E-07   -0.25461E-09  2960   0.389E-04    0.233E-04
DAV:  33    -0.104920919987E+03   -0.15807E-08   -0.15556E-09  2888   0.318E-04
   1 F= -.10492092E+03 E0= -.10492092E+03  d E =-.104921E+03
