 vasp.6.2.1 16May21 (build Feb 21 2024 21:23:56) complex                        
  
 executed on             LinuxIFC date 2025.04.06  22:50:57
 running on   32 total cores
 distrk:  each k-point on   32 cores,    1 groups
 distr:  one band on NCORE=   4 cores,    8 groups


--------------------------------------------------------------------------------------------------------


 INCAR:
   ISTART = 1            (Read existing wavefunction, if there)
   ISPIN = 1            (Non-Spin polarised DFT)
   LREAL = .FALSE.       (Projection operators: automatic)
   ENCUT = 520          (Cut-off energy for plane wave basis set, in eV)
   PREC = Accurate   (Precision level: Normal or Accurate, set Accurate when perform structure lattice relaxation calculation)
   LWAVE = .TRUE.        (Write WAVECAR or not)
   LCHARG = .TRUE.        (Write CHGCAR or not)
   ADDGRID = .TRUE.        (Increase grid, helps GGA convergence)
   LASPH = .TRUE.        (Give more accurate total energies and band structure calculations)
   PREC = Accurate      (Accurate strictly avoids any aliasing or wrap around errors)
   ISMEAR = 0            (Gaussian smearing, metals:1)
   SIGMA = 0.05         (Smearing value in eV, metals:0.2)
   NELM = 90           (Max electronic SCF steps)
   NELMIN = 6            (Min electronic SCF steps)
   EDIFF = 1E-08        (SCF energy convergence, in eV)
   NSW = 100          (Max ionic steps)
   IBRION = 2            (Algorithm: 0-MD, 1-Quasi-New, 2-CG)
   ISIF = 2            (Stress/relaxation: 2-Ions, 3-Shape/Ions/V, 4-Shape/Ions)
   EDIFFG = -1E-02        (Ionic convergence, eV/AA)
   ISYM = 2            (Symmetry: 0\=none, 2\=GGA, 3\=hybrids)
   ISPIN = 2
   MAGMOM = 4*1.0 8*0.6
   NCORE = 4

 POTCAR:    PAW_PBE Ce 23Dec2003                  
 POTCAR:    PAW_PBE O 08Apr2002                   
 POTCAR:    PAW_PBE Ce 23Dec2003                  
   VRHFIN =Ce : [core= Kr 4d10]                                                                     
   LEXCH  = PE                                                                                      
   EATOM  =  1063.0861 eV,   78.1346 Ry                                                             
                                                                                                    
   TITEL  = PAW_PBE Ce 23Dec2003                                                                    
   LULTRA =        F    use ultrasoft PP ?                                                          
   IUNSCR =        1    unscreen: 0-lin 1-nonlin 2-no                                               
   RPACOR =    1.800    partial core radius                                                         
   POMASS =  140.115; ZVAL   =   12.000    mass and valenz                                          
   RCORE  =    2.700    outmost cutoff radius                                                       
   RWIGS  =    2.500; RWIGS  =    1.323    wigner-seitz radius (au A)                               
   ENMAX  =  273.042; ENMIN  =  204.781 eV                                                          
   RCLOC  =    1.810    cutoff for local pot                                                        
   LCOR   =        T    correct aug charges                                                         
   LPAW   =        T    paw PP                                                                      
   EAUG   =  580.196                                                                                
   DEXC   =    0.000                                                                                
   RMAX   =    2.749    core radius for proj-oper                                                   
   RAUG   =    1.300    factor for augmentation sphere                                              
   RDEP   =    2.810    radius for radial grids                                                     
   RDEPT  =    2.162    core radius for aug-charge                                                  
                                                                                                    
   Atomic configuration                                                                             
   14 entries                                                                                       
     n  l   j            E        occ.                                                              
     1  0  0.50    -40258.9816   2.0000                                                             
     2  0  0.50     -6445.4884   2.0000                                                             
     2  1  1.50     -5771.7470   6.0000                                                             
     3  0  0.50     -1387.9739   2.0000                                                             
     3  1  1.50     -1173.8158   6.0000                                                             
     3  2  2.50      -869.9108  10.0000                                                             
     4  0  0.50      -280.8706   2.0000                                                             
     4  1  1.50      -210.9815   6.0000                                                             
     4  2  2.50      -110.4558  10.0000                                                             
     5  0  0.50       -40.5819   2.0000                                                             
     6  0  0.50        -3.7444   2.0000                                                             
     5  1  1.50       -23.2188   6.0000                                                             
     5  2  2.50        -3.0598   1.0000                                                             
     4  3  2.50        -5.3970   1.0000                                                             
   Description                                                                                      
     l       E           TYP  RCUT    TYP  RCUT                                                     
     0    -40.5819164     23  1.500                                                                 
     0     -3.7443793     23  2.300                                                                 
     1    -23.2188445     23  2.000                                                                 
     1     40.8174780     23  2.300                                                                 
     2     -3.0597556     23  2.500                                                                 
     2     13.6058260     23  2.500                                                                 
     3     -5.3970469     23  2.700                                                                 
     3     -5.8505052     23  2.700                                                                 
  local pseudopotential read in
  partial core-charges read in
  partial kinetic energy density read in
  atomic valenz-charges read in
  non local Contribution for L=           0  read in
    real space projection operators read in
  non local Contribution for L=           0  read in
    real space projection operators read in
  non local Contribution for L=           1  read in
    real space projection operators read in
  non local Contribution for L=           1  read in
    real space projection operators read in
  non local Contribution for L=           2  read in
    real space projection operators read in
  non local Contribution for L=           2  read in
    real space projection operators read in
  non local Contribution for L=           3  read in
    real space projection operators read in
  non local Contribution for L=           3  read in
    real space projection operators read in
    PAW grid and wavefunctions read in
 
   number of l-projection  operators is LMAX  =           8
   number of lm-projection operators is LMMAX =          32
 
 POTCAR:    PAW_PBE O 08Apr2002                   
   VRHFIN =O: s2p4                                                                                  
   LEXCH  = PE                                                                                      
   EATOM  =   432.3788 eV,   31.7789 Ry                                                             
                                                                                                    
   TITEL  = PAW_PBE O 08Apr2002                                                                     
   LULTRA =        F    use ultrasoft PP ?                                                          
   IUNSCR =        1    unscreen: 0-lin 1-nonlin 2-no                                               
   RPACOR =    1.200    partial core radius                                                         
   POMASS =   16.000; ZVAL   =    6.000    mass and valenz                                          
   RCORE  =    1.520    outmost cutoff radius                                                       
   RWIGS  =    1.550; RWIGS  =    0.820    wigner-seitz radius (au A)                               
   ENMAX  =  400.000; ENMIN  =  300.000 eV                                                          
   ICORE  =        2    local potential                                                             
   LCOR   =        T    correct aug charges                                                         
   LPAW   =        T    paw PP                                                                      
   EAUG   =  605.392                                                                                
   DEXC   =    0.000                                                                                
   RMAX   =    1.553    core radius for proj-oper                                                   
   RAUG   =    1.300    factor for augmentation sphere                                              
   RDEP   =    1.550    radius for radial grids                                                     
   RDEPT  =    1.329    core radius for aug-charge                                                  
                                                                                                    
   Atomic configuration                                                                             
    4 entries                                                                                       
     n  l   j            E        occ.                                                              
     1  0  0.50      -514.6923   2.0000                                                             
     2  0  0.50       -23.9615   2.0000                                                             
     2  1  0.50        -9.0305   4.0000                                                             
     3  2  1.50        -9.5241   0.0000                                                             
   Description                                                                                      
     l       E           TYP  RCUT    TYP  RCUT                                                     
     0    -23.9615318     23  1.200                                                                 
     0     -9.5240782     23  1.200                                                                 
     1     -9.0304911     23  1.520                                                                 
     1      8.1634956     23  1.520                                                                 
     2     -9.5240782      7  1.500                                                                 
  local pseudopotential read in
  partial core-charges read in
  partial kinetic energy density read in
  kinetic energy density of atom read in
  atomic valenz-charges read in
  non local Contribution for L=           0  read in
    real space projection operators read in
  non local Contribution for L=           0  read in
    real space projection operators read in
  non local Contribution for L=           1  read in
    real space projection operators read in
  non local Contribution for L=           1  read in
    real space projection operators read in
    PAW grid and wavefunctions read in
 
   number of l-projection  operators is LMAX  =           4
   number of lm-projection operators is LMMAX =           8
 
  PAW_PBE Ce 23Dec2003                  :
 energy of atom  1       EATOM=-1063.0861
 kinetic energy error for atom=    0.0133 (will be added to EATOM!!)
  PAW_PBE O 08Apr2002                   :
 energy of atom  2       EATOM= -432.3788
 kinetic energy error for atom=    0.0208 (will be added to EATOM!!)
 
 
 POSCAR: cif2pos.py
  positions in direct lattice
  No initial velocities read in
 exchange correlation table for  LEXCH =        8
   RHO(1)=    0.500       N(1)  =     2000
   RHO(2)=  100.500       N(2)  =     4000
 


--------------------------------------------------------------------------------------------------------


 ion  position               nearest neighbor table
   1  0.000  0.000  0.000-   5 2.37   6 2.37   7 2.37   8 2.37   9 2.37  10 2.37  11 2.37  12 2.37

   2  0.500  0.500  0.000-   5 2.37   6 2.37   7 2.37   8 2.37   9 2.37  10 2.37  11 2.37  12 2.37

   3  0.500  0.000  0.500-   5 2.37   6 2.37   7 2.37   8 2.37   9 2.37  10 2.37  11 2.37  12 2.37

   4  0.000  0.500  0.500-   5 2.37   6 2.37   7 2.37   8 2.37   9 2.37  10 2.37  11 2.37  12 2.37

   5  0.250  0.250  0.250-   1 2.37   2 2.37   3 2.37   4 2.37
   6  0.750  0.750  0.750-   1 2.37   2 2.37   3 2.37   4 2.37
   7  0.750  0.250  0.250-   1 2.37   2 2.37   3 2.37   4 2.37
   8  0.250  0.750  0.750-   1 2.37   2 2.37   3 2.37   4 2.37
   9  0.750  0.750  0.250-   1 2.37   2 2.37   3 2.37   4 2.37
  10  0.250  0.250  0.750-   1 2.37   2 2.37   3 2.37   4 2.37
  11  0.250  0.750  0.250-   1 2.37   2 2.37   3 2.37   4 2.37
  12  0.750  0.250  0.750-   1 2.37   2 2.37   3 2.37   4 2.37
 
  LATTYP: Found a simple cubic cell.
 ALAT       =     5.4674503500
  
  Lattice vectors:
  
 A1 = (   5.4674503500,   0.0000000000,   0.0000000000)
 A2 = (   0.0000000000,   5.4674503500,   0.0000000000)
 A3 = (   0.0000000000,   0.0000000000,   5.4674503500)


Analysis of symmetry for initial positions (statically):
=====================================================================
 Subroutine PRICEL returns following result:
 
  LATTYP: Found a face centered cubic cell.
 ALAT       =     5.4674503500
  
  Lattice vectors:
  
 A1 = (   2.7337251750,  -2.7337251750,   0.0000000000)
 A2 = (   2.7337251750,   0.0000000000,   2.7337251750)
 A3 = (   0.0000000000,  -2.7337251750,   2.7337251750)
 
   4 primitive cells build up your supercell.
 

 Routine SETGRP: Setting up the symmetry group for a 
 simple cubic supercell.


 Subroutine GETGRP returns: Found 48 space group operations
 (whereof 48 operations were pure point group operations)
 out of a pool of 48 trial point group operations.


The static configuration has the point symmetry O_h .


Analysis of symmetry for dynamics (positions and initial velocities):
=====================================================================
 Subroutine PRICEL returns following result:
 
  LATTYP: Found a face centered cubic cell.
 ALAT       =     5.4674503500
  
  Lattice vectors:
  
 A1 = (   2.7337251750,  -2.7337251750,   0.0000000000)
 A2 = (   2.7337251750,   0.0000000000,   2.7337251750)
 A3 = (   0.0000000000,  -2.7337251750,   2.7337251750)
 
   4 primitive cells build up your supercell.
 

 Routine SETGRP: Setting up the symmetry group for a 
 simple cubic supercell.


 Subroutine GETGRP returns: Found 48 space group operations
 (whereof 48 operations were pure point group operations)
 out of a pool of 48 trial point group operations.


The dynamic configuration has the point symmetry O_h .


 Subroutine INISYM returns: Found 48 space group operations
 (whereof 48 operations are pure point group operations),
 and found     4 'primitive' translations


----------------------------------------------------------------------------------------

                                     Primitive cell                                     

  volume of cell :      40.8596

  direct lattice vectors                    reciprocal lattice vectors
     2.733725175 -2.733725175  0.000000000     0.182900609 -0.182900609 -0.182900609
     2.733725175  0.000000000  2.733725175     0.182900609  0.182900609  0.182900609
     0.000000000 -2.733725175  2.733725175    -0.182900609 -0.182900609  0.182900609

  length of vectors
     3.866071218  3.866071218  3.866071218     0.316793148  0.316793148  0.316793148

  position of ions in fractional coordinates (direct lattice)
     0.000000000  0.000000000  0.000000000
     0.750000000  0.750000000  0.750000000
     0.250000000  0.250000000  0.250000000

  ion indices of the primitive-cell ions
   primitive index   ion index
                 1           1
                 2           5
                 3           6

----------------------------------------------------------------------------------------

 
 
 KPOINTS: K-Spacing Value to Generate K-Mesh: 0.02

Automatic generation of k-mesh.
 Grid dimensions read from file:
 generate k-points for:    9    9    9

 Generating k-lattice:

  Cartesian coordinates                     Fractional coordinates (reciprocal lattice)
     0.020322290  0.000000000  0.000000000     0.111111111  0.000000000  0.000000000
     0.000000000  0.020322290  0.000000000     0.000000000  0.111111111  0.000000000
     0.000000000  0.000000000  0.020322290     0.000000000  0.000000000  0.111111111

  Length of vectors
     0.020322290  0.020322290  0.020322290

  Shift w.r.t. Gamma in fractional coordinates (k-lattice)
     0.000000000  0.000000000  0.000000000

 
 Subroutine IBZKPT returns following result:
 ===========================================
 
 Found     35 irreducible k-points:
 
 Following reciprocal coordinates:
            Coordinates               Weight
  0.000000  0.000000  0.000000      1.000000
  0.111111  0.000000  0.000000      6.000000
  0.222222  0.000000  0.000000      6.000000
  0.333333  0.000000  0.000000      6.000000
  0.444444  0.000000  0.000000      6.000000
  0.111111  0.111111  0.000000     12.000000
  0.222222  0.111111  0.000000     24.000000
  0.333333  0.111111  0.000000     24.000000
  0.444444  0.111111  0.000000     24.000000
  0.222222  0.222222  0.000000     12.000000
  0.333333  0.222222  0.000000     24.000000
  0.444444  0.222222  0.000000     24.000000
  0.333333  0.333333  0.000000     12.000000
  0.444444  0.333333  0.000000     24.000000
  0.444444  0.444444  0.000000     12.000000
  0.111111  0.111111  0.111111      8.000000
  0.222222  0.111111  0.111111     24.000000
  0.333333  0.111111  0.111111     24.000000
  0.444444  0.111111  0.111111     24.000000
  0.222222  0.222222  0.111111     24.000000
  0.333333  0.222222  0.111111     48.000000
  0.444444  0.222222  0.111111     48.000000
  0.333333  0.333333  0.111111     24.000000
  0.444444  0.333333  0.111111     48.000000
  0.444444  0.444444  0.111111     24.000000
  0.222222  0.222222  0.222222      8.000000
  0.333333  0.222222  0.222222     24.000000
  0.444444  0.222222  0.222222     24.000000
  0.333333  0.333333  0.222222     24.000000
  0.444444  0.333333  0.222222     48.000000
  0.444444  0.444444  0.222222     24.000000
  0.333333  0.333333  0.333333      8.000000
  0.444444  0.333333  0.333333     24.000000
  0.444444  0.444444  0.333333     24.000000
  0.444444  0.444444  0.444444      8.000000
 
 Following cartesian coordinates:
            Coordinates               Weight
  0.000000  0.000000  0.000000      1.000000
  0.020322  0.000000  0.000000      6.000000
  0.040645  0.000000  0.000000      6.000000
  0.060967  0.000000  0.000000      6.000000
  0.081289  0.000000  0.000000      6.000000
  0.020322  0.020322  0.000000     12.000000
  0.040645  0.020322  0.000000     24.000000
  0.060967  0.020322  0.000000     24.000000
  0.081289  0.020322  0.000000     24.000000
  0.040645  0.040645  0.000000     12.000000
  0.060967  0.040645  0.000000     24.000000
  0.081289  0.040645  0.000000     24.000000
  0.060967  0.060967  0.000000     12.000000
  0.081289  0.060967  0.000000     24.000000
  0.081289  0.081289  0.000000     12.000000
  0.020322  0.020322  0.020322      8.000000
  0.040645  0.020322  0.020322     24.000000
  0.060967  0.020322  0.020322     24.000000
  0.081289  0.020322  0.020322     24.000000
  0.040645  0.040645  0.020322     24.000000
  0.060967  0.040645  0.020322     48.000000
  0.081289  0.040645  0.020322     48.000000
  0.060967  0.060967  0.020322     24.000000
  0.081289  0.060967  0.020322     48.000000
  0.081289  0.081289  0.020322     24.000000
  0.040645  0.040645  0.040645      8.000000
  0.060967  0.040645  0.040645     24.000000
  0.081289  0.040645  0.040645     24.000000
  0.060967  0.060967  0.040645     24.000000
  0.081289  0.060967  0.040645     48.000000
  0.081289  0.081289  0.040645     24.000000
  0.060967  0.060967  0.060967      8.000000
  0.081289  0.060967  0.060967     24.000000
  0.081289  0.081289  0.060967     24.000000
  0.081289  0.081289  0.081289      8.000000
 


--------------------------------------------------------------------------------------------------------




 Dimension of arrays:
   k-points           NKPTS =     35   k-points in BZ     NKDIM =     35   number of bands    NBANDS=     64
   number of dos      NEDOS =    301   number of ions     NIONS =     12
   non local maximal  LDIM  =      8   non local SUM 2l+1 LMDIM =     32
   total plane-waves  NPLWV =  74088
   max r-space proj   IRMAX =      1   max aug-charges    IRDMAX= 191329
   dimension x,y,z NGX =    42 NGY =   42 NGZ =   42
   dimension x,y,z NGXF=    84 NGYF=   84 NGZF=   84
   support grid    NGXF=   168 NGYF=  168 NGZF=  168
   ions per type =               4   8
   NGX,Y,Z   is equivalent  to a cutoff of  12.77, 12.77, 12.77 a.u.
   NGXF,Y,Z  is equivalent  to a cutoff of  25.54, 25.54, 25.54 a.u.

 SYSTEM =  unknown system                          
 POSCAR =  cif2pos.py                              

 Startparameter for this run:
   NWRITE =      2    write-flag & timer
   PREC   = accura    normal or accurate (medium, high low for compatibility)
   ISTART =      0    job   : 0-new  1-cont  2-samecut
   ICHARG =      2    charge: 1-file 2-atom 10-const
   ISPIN  =      1    spin polarized calculation?
   LNONCOLLINEAR =      F non collinear calculations
   LSORBIT =      F    spin-orbit coupling
   INIWAV =      1    electr: 0-lowe 1-rand  2-diag
   LASPH  =      T    aspherical Exc in radial PAW
 Electronic Relaxation 1
   ENCUT  =  520.0 eV  38.22 Ry    6.18 a.u.  10.17 10.17 10.17*2*pi/ulx,y,z
   ENINI  =  520.0     initial cutoff
   ENAUG  =  605.4 eV  augmentation charge cutoff
   NELM   =     90;   NELMIN=  6; NELMDL=  0     # of ELM steps 
   EDIFF  = 0.1E-07   stopping-criterion for ELM
   LREAL  =      F    real-space projection
   NLSPLINE    = F    spline interpolate recip. space projectors
   LCOMPAT=      F    compatible to vasp.4.4
   GGA_COMPAT  = T    GGA compatible to vasp.4.4-vasp.4.6
   LMAXPAW     = -100 max onsite density
   LMAXMIX     =    2 max onsite mixed and CHGCAR
   VOSKOWN=      0    Vosko Wilk Nusair interpolation
   ROPT   =    0.00000   0.00000
 Ionic relaxation
   EDIFFG = -.1E-01   stopping-criterion for IOM
   NSW    =    100    number of steps for IOM
   NBLOCK =      1;   KBLOCK =    100    inner block; outer block 
   IBRION =      2    ionic relax: 0-MD 1-quasi-New 2-CG
   NFREE  =      1    steps in history (QN), initial steepest desc. (CG)
   ISIF   =      2    stress and relaxation
   IWAVPR =     11    prediction:  0-non 1-charg 2-wave 3-comb
   ISYM   =      2    0-nonsym 1-usesym 2-fastsym
   LCORR  =      T    Harris-Foulkes like correction to forces

   POTIM  = 0.5000    time-step for ionic-motion
   TEIN   =    0.0    initial temperature
   TEBEG  =    0.0;   TEEND  =   0.0 temperature during run
   SMASS  =  -3.00    Nose mass-parameter (am)
   estimated Nose-frequenzy (Omega)   =  0.10E-29 period in steps = 0.13E+47 mass=  -0.683E-27a.u.
   SCALEE = 1.0000    scale energy and forces
   NPACO  =    256;   APACO  = 16.0  distance and # of slots for P.C.
   PSTRESS=    0.0 pullay stress

  Mass of Ions in am
   POMASS = 140.12 16.00
  Ionic Valenz
   ZVAL   =  12.00  6.00
  Atomic Wigner-Seitz radii
   RWIGS  =  -1.00 -1.00
  virtual crystal weights 
   VCA    =   1.00  1.00
   NELECT =      96.0000    total number of electrons
   NUPDOWN=      -1.0000    fix difference up-down

 DOS related values:
   EMIN   =  10.00;   EMAX   =-10.00  energy-range for DOS
   EFERMI =   0.00
   ISMEAR =     0;   SIGMA  =   0.05  broadening in eV -4-tet -1-fermi 0-gaus

 Electronic relaxation 2 (details)
   IALGO  =     38    algorithm
   LDIAG  =      T    sub-space diagonalisation (order eigenvalues)
   LSUBROT=      F    optimize rotation matrix (better conditioning)
   TURBO    =      0    0=normal 1=particle mesh
   IRESTART =      0    0=no restart 2=restart with 2 vectors
   NREBOOT  =      0    no. of reboots
   NMIN     =      0    reboot dimension
   EREF     =   0.00    reference energy to select bands
   IMIX   =      4    mixing-type and parameters
     AMIX     =   0.40;   BMIX     =  1.00
     AMIX_MAG =   1.60;   BMIX_MAG =  1.00
     AMIN     =   0.10
     WC   =   100.;   INIMIX=   1;  MIXPRE=   1;  MAXMIX= -45

 Intra band minimization:
   WEIMIN = 0.0010     energy-eigenvalue tresh-hold
   EBREAK =  0.39E-10  absolut break condition
   DEPER  =   0.30     relativ break condition  

   TIME   =   0.40     timestep for ELM

  volume/ion in A,a.u.               =      13.62        91.91
  Fermi-wavevector in a.u.,A,eV,Ry     =   1.371030  2.590872 25.575200  1.879724
  Thomas-Fermi vector in A             =   2.496764
 
 Write flags
   LWAVE        =      T    write WAVECAR
   LDOWNSAMPLE  =      F    k-point downsampling of WAVECAR
   LCHARG       =      T    write CHGCAR
   LVTOT        =      F    write LOCPOT, total local potential
   LVHAR        =      F    write LOCPOT, Hartree potential only
   LELF         =      F    write electronic localiz. function (ELF)
   LORBIT       =      0    0 simple, 1 ext, 2 COOP (PROOUT), +10 PAW based schemes


 Dipole corrections
   LMONO  =      F    monopole corrections only (constant potential shift)
   LDIPOL =      F    correct potential (dipole corrections)
   IDIPOL =      0    1-x, 2-y, 3-z, 4-all directions 
   EPSILON=  1.0000000 bulk dielectric constant

 Exchange correlation treatment:
   GGA     =    --    GGA type
   LEXCH   =     8    internal setting for exchange type
   VOSKOWN=      0    Vosko Wilk Nusair interpolation
   LHFCALC =     F    Hartree Fock is set to
   LHFONE  =     F    Hartree Fock one center treatment
   AEXX    =    0.0000 exact exchange contribution

 Linear response parameters
   LEPSILON=     F    determine dielectric tensor
   LRPA    =     F    only Hartree local field effects (RPA)
   LNABLA  =     F    use nabla operator in PAW spheres
   LVEL    =     F    velocity operator in full k-point grid
   LINTERFAST=   F  fast interpolation
   KINTER  =     0    interpolate to denser k-point grid
   CSHIFT  =0.1000    complex shift for real part using Kramers Kronig
   OMEGAMAX=  -1.0    maximum frequency
   DEG_THRESHOLD= 0.2000000E-02 threshold for treating states as degnerate
   RTIME   =   -0.100 relaxation time in fs
  (WPLASMAI=    0.000 imaginary part of plasma frequency in eV, 0.658/RTIME)
   DFIELD  = 0.0000000 0.0000000 0.0000000 field for delta impulse in time
 
 Orbital magnetization related:
   ORBITALMAG=     F  switch on orbital magnetization
   LCHIMAG   =     F  perturbation theory with respect to B field
   DQ        =  0.001000  dq finite difference perturbation B field
   LLRAUG    =     F  two centre corrections for induced B field



--------------------------------------------------------------------------------------------------------


 conjugate gradient relaxation of ions
 charge density and potential will be updated during run
 non-spin polarized calculation
 Variant of blocked Davidson
 Davidson routine will perform the subspace rotation
 perform sub-space diagonalisation
    after iterative eigenvector-optimisation
 modified Broyden-mixing scheme, WC =      100.0
 initial mixing is a Kerker type mixing with AMIX =  0.4000 and BMIX =      1.0000
 Hartree-type preconditioning will be used
 using additional bands           16
 reciprocal scheme for non local part
 use partial core corrections
 calculate Harris-corrections to forces 
   (improved forces if not selfconsistent)
 use gradient corrections 
 use of overlap-Matrix (Vanderbilt PP)
 Gauss-broadening in eV      SIGMA  =   0.05


--------------------------------------------------------------------------------------------------------


  energy-cutoff  :      520.00
  volume of cell :      163.44
      direct lattice vectors                 reciprocal lattice vectors
     5.467450350  0.000000000  0.000000000     0.182900609  0.000000000  0.000000000
     0.000000000  5.467450350  0.000000000     0.000000000  0.182900609  0.000000000
     0.000000000  0.000000000  5.467450350     0.000000000  0.000000000  0.182900609

  length of vectors
     5.467450350  5.467450350  5.467450350     0.182900609  0.182900609  0.182900609


 
 k-points in units of 2pi/SCALE and weight: K-Spacing Value to Generate K-Mesh: 0.02
   0.00000000  0.00000000  0.00000000       0.001
   0.02032229  0.00000000  0.00000000       0.008
   0.04064458  0.00000000  0.00000000       0.008
   0.06096687  0.00000000  0.00000000       0.008
   0.08128916  0.00000000  0.00000000       0.008
   0.02032229  0.02032229  0.00000000       0.016
   0.04064458  0.02032229  0.00000000       0.033
   0.06096687  0.02032229  0.00000000       0.033
   0.08128916  0.02032229  0.00000000       0.033
   0.04064458  0.04064458  0.00000000       0.016
   0.06096687  0.04064458  0.00000000       0.033
   0.08128916  0.04064458  0.00000000       0.033
   0.06096687  0.06096687  0.00000000       0.016
   0.08128916  0.06096687  0.00000000       0.033
   0.08128916  0.08128916  0.00000000       0.016
   0.02032229  0.02032229  0.02032229       0.011
   0.04064458  0.02032229  0.02032229       0.033
   0.06096687  0.02032229  0.02032229       0.033
   0.08128916  0.02032229  0.02032229       0.033
   0.04064458  0.04064458  0.02032229       0.033
   0.06096687  0.04064458  0.02032229       0.066
   0.08128916  0.04064458  0.02032229       0.066
   0.06096687  0.06096687  0.02032229       0.033
   0.08128916  0.06096687  0.02032229       0.066
   0.08128916  0.08128916  0.02032229       0.033
   0.04064458  0.04064458  0.04064458       0.011
   0.06096687  0.04064458  0.04064458       0.033
   0.08128916  0.04064458  0.04064458       0.033
   0.06096687  0.06096687  0.04064458       0.033
   0.08128916  0.06096687  0.04064458       0.066
   0.08128916  0.08128916  0.04064458       0.033
   0.06096687  0.06096687  0.06096687       0.011
   0.08128916  0.06096687  0.06096687       0.033
   0.08128916  0.08128916  0.06096687       0.033
   0.08128916  0.08128916  0.08128916       0.011
 
 k-points in reciprocal lattice and weights: K-Spacing Value to Generate K-Mesh: 0.02
   0.00000000  0.00000000  0.00000000       0.001
   0.11111111  0.00000000  0.00000000       0.008
   0.22222222  0.00000000  0.00000000       0.008
   0.33333333  0.00000000  0.00000000       0.008
   0.44444444  0.00000000  0.00000000       0.008
   0.11111111  0.11111111  0.00000000       0.016
   0.22222222  0.11111111  0.00000000       0.033
   0.33333333  0.11111111  0.00000000       0.033
   0.44444444  0.11111111  0.00000000       0.033
   0.22222222  0.22222222  0.00000000       0.016
   0.33333333  0.22222222  0.00000000       0.033
   0.44444444  0.22222222  0.00000000       0.033
   0.33333333  0.33333333  0.00000000       0.016
   0.44444444  0.33333333  0.00000000       0.033
   0.44444444  0.44444444  0.00000000       0.016
   0.11111111  0.11111111  0.11111111       0.011
   0.22222222  0.11111111  0.11111111       0.033
   0.33333333  0.11111111  0.11111111       0.033
   0.44444444  0.11111111  0.11111111       0.033
   0.22222222  0.22222222  0.11111111       0.033
   0.33333333  0.22222222  0.11111111       0.066
   0.44444444  0.22222222  0.11111111       0.066
   0.33333333  0.33333333  0.11111111       0.033
   0.44444444  0.33333333  0.11111111       0.066
   0.44444444  0.44444444  0.11111111       0.033
   0.22222222  0.22222222  0.22222222       0.011
   0.33333333  0.22222222  0.22222222       0.033
   0.44444444  0.22222222  0.22222222       0.033
   0.33333333  0.33333333  0.22222222       0.033
   0.44444444  0.33333333  0.22222222       0.066
   0.44444444  0.44444444  0.22222222       0.033
   0.33333333  0.33333333  0.33333333       0.011
   0.44444444  0.33333333  0.33333333       0.033
   0.44444444  0.44444444  0.33333333       0.033
   0.44444444  0.44444444  0.44444444       0.011
 
 position of ions in fractional coordinates (direct lattice) 
   0.00000000  0.00000000  0.00000000
   0.50000000  0.50000000  0.00000000
   0.50000000  0.00000000  0.50000000
   0.00000000  0.50000000  0.50000000
   0.25000000  0.25000000  0.25000000
   0.75000000  0.75000000  0.75000000
   0.75000000  0.25000000  0.25000000
   0.25000000  0.75000000  0.75000000
   0.75000000  0.75000000  0.25000000
   0.25000000  0.25000000  0.75000000
   0.25000000  0.75000000  0.25000000
   0.75000000  0.25000000  0.75000000
 
 position of ions in cartesian coordinates  (Angst):
   0.00000000  0.00000000  0.00000000
   2.73372518  2.73372518  0.00000000
   2.73372518  0.00000000  2.73372518
   0.00000000  2.73372518  2.73372518
   1.36686259  1.36686259  1.36686259
   4.10058776  4.10058776  4.10058776
   4.10058776  1.36686259  1.36686259
   1.36686259  4.10058776  4.10058776
   4.10058776  4.10058776  1.36686259
   1.36686259  1.36686259  4.10058776
   1.36686259  4.10058776  1.36686259
   4.10058776  1.36686259  4.10058776
 


--------------------------------------------------------------------------------------------------------


 k-point   1 :   0.0000 0.0000 0.0000  plane waves:    4385
 k-point   2 :   0.1111 0.0000 0.0000  plane waves:    4409
 k-point   3 :   0.2222 0.0000 0.0000  plane waves:    4408
 k-point   4 :   0.3333 0.0000 0.0000  plane waves:    4372
 k-point   5 :   0.4444 0.0000 0.0000  plane waves:    4400
 k-point   6 :   0.1111 0.1111 0.0000  plane waves:    4411
 k-point   7 :   0.2222 0.1111 0.0000  plane waves:    4410
 k-point   8 :   0.3333 0.1111 0.0000  plane waves:    4387
 k-point   9 :   0.4444 0.1111 0.0000  plane waves:    4392
 k-point  10 :   0.2222 0.2222 0.0000  plane waves:    4398
 k-point  11 :   0.3333 0.2222 0.0000  plane waves:    4393
 k-point  12 :   0.4444 0.2222 0.0000  plane waves:    4397
 k-point  13 :   0.3333 0.3333 0.0000  plane waves:    4426
 k-point  14 :   0.4444 0.3333 0.0000  plane waves:    4397
 k-point  15 :   0.4444 0.4444 0.0000  plane waves:    4420
 k-point  16 :   0.1111 0.1111 0.1111  plane waves:    4406
 k-point  17 :   0.2222 0.1111 0.1111  plane waves:    4401
 k-point  18 :   0.3333 0.1111 0.1111  plane waves:    4397
 k-point  19 :   0.4444 0.1111 0.1111  plane waves:    4393
 k-point  20 :   0.2222 0.2222 0.1111  plane waves:    4400
 k-point  21 :   0.3333 0.2222 0.1111  plane waves:    4407
 k-point  22 :   0.4444 0.2222 0.1111  plane waves:    4391
 k-point  23 :   0.3333 0.3333 0.1111  plane waves:    4393
 k-point  24 :   0.4444 0.3333 0.1111  plane waves:    4401
 k-point  25 :   0.4444 0.4444 0.1111  plane waves:    4410
 k-point  26 :   0.2222 0.2222 0.2222  plane waves:    4398
 k-point  27 :   0.3333 0.2222 0.2222  plane waves:    4396
 k-point  28 :   0.4444 0.2222 0.2222  plane waves:    4398
 k-point  29 :   0.3333 0.3333 0.2222  plane waves:    4403
 k-point  30 :   0.4444 0.3333 0.2222  plane waves:    4406
 k-point  31 :   0.4444 0.4444 0.2222  plane waves:    4415
 k-point  32 :   0.3333 0.3333 0.3333  plane waves:    4410
 k-point  33 :   0.4444 0.3333 0.3333  plane waves:    4414
 k-point  34 :   0.4444 0.4444 0.3333  plane waves:    4423
 k-point  35 :   0.4444 0.4444 0.4444  plane waves:    4389

 maximum and minimum number of plane-waves per node :      1123     1065

 maximum number of plane-waves:      4426
 maximum index in each direction: 
   IXMAX=   10   IYMAX=   10   IZMAX=   10
   IXMIN=  -10   IYMIN=  -10   IZMIN=  -10


 parallel 3D FFT for wavefunctions:
    minimum data exchange during FFTs selected (reduces bandwidth)
 parallel 3D FFT for charge:
    minimum data exchange during FFTs selected (reduces bandwidth)


 total amount of memory used by VASP MPI-rank0    61449. kBytes
=======================================================================

   base      :      30000. kBytes
   nonl-proj :      20430. kBytes
   fftplans  :       3615. kBytes
   grid      :       1989. kBytes
   one-center:        147. kBytes
   wavefun   :       5268. kBytes
 
     INWAV:  cpu time    0.0000: real time    0.0000
 Broyden mixing: mesh for mixing (old mesh)
   NGX = 21   NGY = 21   NGZ = 21
  (NGX  = 84   NGY  = 84   NGZ  = 84)
  gives a total of   9261 points

 initial charge density was supplied:
 charge density of overlapping atoms calculated
 number of electron      96.0000000 magnetization 
 keeping initial charge density in first step


--------------------------------------------------------------------------------------------------------


 Maximum index for augmentation-charges         8383 (set IRDMAX)


--------------------------------------------------------------------------------------------------------


 First call to EWALD:  gamma=   0.324
 Maximum number of real-space cells 3x 3x 3
 Maximum number of reciprocal cells 3x 3x 3

    FEWALD:  cpu time    0.0020: real time    0.0020


--------------------------------------- Iteration      1(   1)  ---------------------------------------


    POTLOK:  cpu time    0.0325: real time    0.0330
    SETDIJ:  cpu time    0.4068: real time    0.4068
     EDDAV:  cpu time    1.9468: real time    1.9512
       DOS:  cpu time    0.0017: real time    0.0018
    --------------------------------------------
      LOOP:  cpu time    2.3878: real time    2.3929

 eigenvalue-minimisations  :  4480
 total energy-change (2. order) : 0.1285230E+04  (-0.4004439E+04)
 number of electron      96.0000000 magnetization 
 augmentation part       96.0000000 magnetization 

 Free energy of the ion-electron system (eV)
  ---------------------------------------------------
  alpha Z        PSCENC =       520.90633069
  Ewald energy   TEWEN  =     -6846.37346550
  -Hartree energ DENC   =     -1264.15690154
  -exchange      EXHF   =         0.00000000
  -V(xc)+E(xc)   XCENC  =       245.22650637
  PAW double counting   =      6175.75607900    -6093.16272582
  entropy T*S    EENTRO =        -0.00612786
  eigenvalues    EBANDS =       835.88527166
  atomic energy  EATOM  =      7711.15510957
  Solvation  Ediel_sol  =         0.00000000
  ---------------------------------------------------
  free energy    TOTEN  =      1285.23007658 eV

  energy without entropy =     1285.23620444  energy(sigma->0) =     1285.23314051


--------------------------------------------------------------------------------------------------------




--------------------------------------- Iteration      1(   2)  ---------------------------------------


     EDDAV:  cpu time    2.0177: real time    2.0176
       DOS:  cpu time    0.0013: real time    0.0013
    --------------------------------------------
      LOOP:  cpu time    2.0190: real time    2.0189

 eigenvalue-minimisations  :  4960
 total energy-change (2. order) :-0.9654337E+03  (-0.8572717E+03)
 number of electron      96.0000000 magnetization 
 augmentation part       96.0000000 magnetization 

 Free energy of the ion-electron system (eV)
  ---------------------------------------------------
  alpha Z        PSCENC =       520.90633069
  Ewald energy   TEWEN  =     -6846.37346550
  -Hartree energ DENC   =     -1264.15690154
  -exchange      EXHF   =         0.00000000
  -V(xc)+E(xc)   XCENC  =       245.22650637
  PAW double counting   =      6175.75607900    -6093.16272582
  entropy T*S    EENTRO =        -0.01862679
  eigenvalues    EBANDS =      -129.53590883
  atomic energy  EATOM  =      7711.15510957
  Solvation  Ediel_sol  =         0.00000000
  ---------------------------------------------------
  free energy    TOTEN  =       319.79639716 eV

  energy without entropy =      319.81502395  energy(sigma->0) =      319.80571056


--------------------------------------------------------------------------------------------------------




--------------------------------------- Iteration      1(   3)  ---------------------------------------


     EDDAV:  cpu time    2.2887: real time    2.2892
       DOS:  cpu time    0.0012: real time    0.0012
    --------------------------------------------
      LOOP:  cpu time    2.2899: real time    2.2904

 eigenvalue-minimisations  :  5920
 total energy-change (2. order) :-0.3824365E+03  (-0.3691821E+03)
 number of electron      96.0000000 magnetization 
 augmentation part       96.0000000 magnetization 

 Free energy of the ion-electron system (eV)
  ---------------------------------------------------
  alpha Z        PSCENC =       520.90633069
  Ewald energy   TEWEN  =     -6846.37346550
  -Hartree energ DENC   =     -1264.15690154
  -exchange      EXHF   =         0.00000000
  -V(xc)+E(xc)   XCENC  =       245.22650637
  PAW double counting   =      6175.75607900    -6093.16272582
  entropy T*S    EENTRO =        -0.00407240
  eigenvalues    EBANDS =      -511.98699432
  atomic energy  EATOM  =      7711.15510957
  Solvation  Ediel_sol  =         0.00000000
  ---------------------------------------------------
  free energy    TOTEN  =       -62.64013394 eV

  energy without entropy =      -62.63606154  energy(sigma->0) =      -62.63809774


--------------------------------------------------------------------------------------------------------




--------------------------------------- Iteration      1(   4)  ---------------------------------------


     EDDAV:  cpu time    2.6835: real time    2.6838
       DOS:  cpu time    0.0006: real time    0.0006
    --------------------------------------------
      LOOP:  cpu time    2.6841: real time    2.6844

 eigenvalue-minimisations  :  7352
 total energy-change (2. order) :-0.6173044E+02  (-0.6102018E+02)
 number of electron      96.0000000 magnetization 
 augmentation part       96.0000000 magnetization 

 Free energy of the ion-electron system (eV)
  ---------------------------------------------------
  alpha Z        PSCENC =       520.90633069
  Ewald energy   TEWEN  =     -6846.37346550
  -Hartree energ DENC   =     -1264.15690154
  -exchange      EXHF   =         0.00000000
  -V(xc)+E(xc)   XCENC  =       245.22650637
  PAW double counting   =      6175.75607900    -6093.16272582
  entropy T*S    EENTRO =        -0.00000000
  eigenvalues    EBANDS =      -573.72151147
  atomic energy  EATOM  =      7711.15510957
  Solvation  Ediel_sol  =         0.00000000
  ---------------------------------------------------
  free energy    TOTEN  =      -124.37057869 eV

  energy without entropy =     -124.37057869  energy(sigma->0) =     -124.37057869


--------------------------------------------------------------------------------------------------------




--------------------------------------- Iteration      1(   5)  ---------------------------------------


     EDDAV:  cpu time    2.8952: real time    2.8957
       DOS:  cpu time    0.0006: real time    0.0006
    CHARGE:  cpu time    0.2226: real time    0.2232
    MIXING:  cpu time    0.0066: real time    0.0066
    --------------------------------------------
      LOOP:  cpu time    3.1250: real time    3.1261

 eigenvalue-minimisations  :  8056
 total energy-change (2. order) :-0.2619024E+01  (-0.2614255E+01)
 number of electron      96.0000003 magnetization 
 augmentation part       -0.5949025 magnetization 

 Broyden mixing:
  rms(total) = 0.55634E+01    rms(broyden)= 0.55633E+01
  rms(prec ) = 0.74871E+01
  weight for this iteration     100.00

 Free energy of the ion-electron system (eV)
  ---------------------------------------------------
  alpha Z        PSCENC =       520.90633069
  Ewald energy   TEWEN  =     -6846.37346550
  -Hartree energ DENC   =     -1264.15690154
  -exchange      EXHF   =         0.00000000
  -V(xc)+E(xc)   XCENC  =       245.22650637
  PAW double counting   =      6175.75607900    -6093.16272582
  entropy T*S    EENTRO =        -0.00000000
  eigenvalues    EBANDS =      -576.34053579
  atomic energy  EATOM  =      7711.15510957
  Solvation  Ediel_sol  =         0.00000000
  ---------------------------------------------------
  free energy    TOTEN  =      -126.98960301 eV

  energy without entropy =     -126.98960301  energy(sigma->0) =     -126.98960301


--------------------------------------------------------------------------------------------------------




--------------------------------------- Iteration      1(   6)  ---------------------------------------


    POTLOK:  cpu time    0.0188: real time    0.0188
    SETDIJ:  cpu time    0.4034: real time    0.4034
     EDDAV:  cpu time    2.3284: real time    2.3286
       DOS:  cpu time    0.0013: real time    0.0013
    CHARGE:  cpu time    0.2399: real time    0.2398
    MIXING:  cpu time    0.0068: real time    0.0068
    --------------------------------------------
      LOOP:  cpu time    2.9986: real time    2.9988

 eigenvalue-minimisations  :  6104
 total energy-change (2. order) : 0.8288115E+01  (-0.3197842E+02)
 number of electron      96.0000002 magnetization 
 augmentation part        8.7735178 magnetization 

 Broyden mixing:
  rms(total) = 0.59161E+01    rms(broyden)= 0.59157E+01
  rms(prec ) = 0.12449E+02
  weight for this iteration     100.00

 eigenvalues of (default mixing * dielectric matrix)
  average eigenvalue GAMMA=   0.4953
  0.4953

 Free energy of the ion-electron system (eV)
  ---------------------------------------------------
  alpha Z        PSCENC =       520.90633069
  Ewald energy   TEWEN  =     -6846.37346550
  -Hartree energ DENC   =     -1371.31546489
  -exchange      EXHF   =         0.00000000
  -V(xc)+E(xc)   XCENC  =       255.32390733
  PAW double counting   =      6626.69553116    -6541.01149660
  entropy T*S    EENTRO =        -0.05569447
  eigenvalues    EBANDS =      -474.02624498
  atomic energy  EATOM  =      7711.15510957
  Solvation  Ediel_sol  =         0.00000000
  ---------------------------------------------------
  free energy    TOTEN  =      -118.70148769 eV

  energy without entropy =     -118.64579321  energy(sigma->0) =     -118.67364045


--------------------------------------------------------------------------------------------------------




--------------------------------------- Iteration      1(   7)  ---------------------------------------


    POTLOK:  cpu time    0.0180: real time    0.0180
    SETDIJ:  cpu time    0.4031: real time    0.4031
     EDDAV:  cpu time    2.5630: real time    2.5630
       DOS:  cpu time    0.0006: real time    0.0006
    CHARGE:  cpu time    0.2248: real time    0.2248
    MIXING:  cpu time    0.0070: real time    0.0074
    --------------------------------------------
      LOOP:  cpu time    3.2166: real time    3.2170

 eigenvalue-minimisations  :  6944
 total energy-change (2. order) : 0.4308476E+01  (-0.6598737E+02)
 number of electron      96.0000003 magnetization 
 augmentation part       -1.7911118 magnetization 

 Broyden mixing:
  rms(total) = 0.42431E+01    rms(broyden)= 0.42430E+01
  rms(prec ) = 0.51657E+01
  weight for this iteration     100.00

 eigenvalues of (default mixing * dielectric matrix)
  average eigenvalue GAMMA=   0.5432
  0.8869  0.1994

 Free energy of the ion-electron system (eV)
  ---------------------------------------------------
  alpha Z        PSCENC =       520.90633069
  Ewald energy   TEWEN  =     -6846.37346550
  -Hartree energ DENC   =     -1360.01441728
  -exchange      EXHF   =         0.00000000
  -V(xc)+E(xc)   XCENC  =       251.19869031
  PAW double counting   =      6756.21701263    -6681.91021534
  entropy T*S    EENTRO =        -0.00000000
  eigenvalues    EBANDS =      -465.57205632
  atomic energy  EATOM  =      7711.15510957
  Solvation  Ediel_sol  =         0.00000000
  ---------------------------------------------------
  free energy    TOTEN  =      -114.39301124 eV

  energy without entropy =     -114.39301124  energy(sigma->0) =     -114.39301124


--------------------------------------------------------------------------------------------------------




--------------------------------------- Iteration      1(   8)  ---------------------------------------


    POTLOK:  cpu time    0.0180: real time    0.0180
    SETDIJ:  cpu time    0.4040: real time    0.4039
     EDDAV:  cpu time    2.5805: real time    2.5806
       DOS:  cpu time    0.0006: real time    0.0006
    CHARGE:  cpu time    0.2227: real time    0.2227
    MIXING:  cpu time    0.0069: real time    0.0069
    --------------------------------------------
      LOOP:  cpu time    3.2326: real time    3.2327

 eigenvalue-minimisations  :  7024
 total energy-change (2. order) :-0.1466660E+01  (-0.3704844E+01)
 number of electron      96.0000003 magnetization 
 augmentation part       -1.3025483 magnetization 

 Broyden mixing:
  rms(total) = 0.30602E+01    rms(broyden)= 0.30601E+01
  rms(prec ) = 0.45416E+01
  weight for this iteration     100.00

 eigenvalues of (default mixing * dielectric matrix)
  average eigenvalue GAMMA=   1.1370
  2.5493  0.5558  0.3058

 Free energy of the ion-electron system (eV)
  ---------------------------------------------------
  alpha Z        PSCENC =       520.90633069
  Ewald energy   TEWEN  =     -6846.37346550
  -Hartree energ DENC   =     -1353.89191579
  -exchange      EXHF   =         0.00000000
  -V(xc)+E(xc)   XCENC  =       251.15529449
  PAW double counting   =      6969.58502827    -6894.49619346
  entropy T*S    EENTRO =        -0.00000000
  eigenvalues    EBANDS =      -473.89985906
  atomic energy  EATOM  =      7711.15510957
  Solvation  Ediel_sol  =         0.00000000
  ---------------------------------------------------
  free energy    TOTEN  =      -115.85967079 eV

  energy without entropy =     -115.85967079  energy(sigma->0) =     -115.85967079


--------------------------------------------------------------------------------------------------------




--------------------------------------- Iteration      1(   9)  ---------------------------------------


    POTLOK:  cpu time    0.0180: real time    0.0180
    SETDIJ:  cpu time    0.4025: real time    0.4025
     EDDAV:  cpu time    2.5099: real time    2.5100
       DOS:  cpu time    0.0006: real time    0.0006
    CHARGE:  cpu time    0.2243: real time    0.2243
    MIXING:  cpu time    0.0071: real time    0.0071
    --------------------------------------------
      LOOP:  cpu time    3.1624: real time    3.1625

 eigenvalue-minimisations  :  6752
 total energy-change (2. order) : 0.8123347E+01  (-0.1895106E+01)
 number of electron      96.0000003 magnetization 
 augmentation part       -1.5279844 magnetization 

 Broyden mixing:
  rms(total) = 0.12117E+01    rms(broyden)= 0.12117E+01
  rms(prec ) = 0.21316E+01
  weight for this iteration     100.00

 eigenvalues of (default mixing * dielectric matrix)
  average eigenvalue GAMMA=   0.9768
  2.4585  0.7058  0.2950  0.4479

 Free energy of the ion-electron system (eV)
  ---------------------------------------------------
  alpha Z        PSCENC =       520.90633069
  Ewald energy   TEWEN  =     -6846.37346550
  -Hartree energ DENC   =     -1397.59674397
  -exchange      EXHF   =         0.00000000
  -V(xc)+E(xc)   XCENC  =       254.92808076
  PAW double counting   =      7363.85435234    -7289.21679979
  entropy T*S    EENTRO =        -0.00000000
  eigenvalues    EBANDS =      -425.39318770
  atomic energy  EATOM  =      7711.15510957
  Solvation  Ediel_sol  =         0.00000000
  ---------------------------------------------------
  free energy    TOTEN  =      -107.73632360 eV

  energy without entropy =     -107.73632360  energy(sigma->0) =     -107.73632360


--------------------------------------------------------------------------------------------------------




--------------------------------------- Iteration      1(  10)  ---------------------------------------


    POTLOK:  cpu time    0.0180: real time    0.0180
    SETDIJ:  cpu time    0.4035: real time    0.4035
     EDDAV:  cpu time    2.7416: real time    2.7418
       DOS:  cpu time    0.0006: real time    0.0006
    CHARGE:  cpu time    0.2247: real time    0.2247
    MIXING:  cpu time    0.0073: real time    0.0073
    --------------------------------------------
      LOOP:  cpu time    3.3958: real time    3.3958

 eigenvalue-minimisations  :  7560
 total energy-change (2. order) : 0.1615858E+01  (-0.4402058E+00)
 number of electron      96.0000003 magnetization 
 augmentation part       -1.5968450 magnetization 

 Broyden mixing:
  rms(total) = 0.71610E+00    rms(broyden)= 0.71609E+00
  rms(prec ) = 0.12865E+01
  weight for this iteration     100.00

 eigenvalues of (default mixing * dielectric matrix)
  average eigenvalue GAMMA=   0.9421
  2.3619  0.3009  0.5608  0.7434  0.7434

 Free energy of the ion-electron system (eV)
  ---------------------------------------------------
  alpha Z        PSCENC =       520.90633069
  Ewald energy   TEWEN  =     -6846.37346550
  -Hartree energ DENC   =     -1390.94955100
  -exchange      EXHF   =         0.00000000
  -V(xc)+E(xc)   XCENC  =       254.89939361
  PAW double counting   =      7321.39745025    -7244.10738970
  entropy T*S    EENTRO =        -0.00000000
  eigenvalues    EBANDS =      -433.04834323
  atomic energy  EATOM  =      7711.15510957
  Solvation  Ediel_sol  =         0.00000000
  ---------------------------------------------------
  free energy    TOTEN  =      -106.12046530 eV

  energy without entropy =     -106.12046530  energy(sigma->0) =     -106.12046530


--------------------------------------------------------------------------------------------------------




--------------------------------------- Iteration      1(  11)  ---------------------------------------


    POTLOK:  cpu time    0.0181: real time    0.0181
    SETDIJ:  cpu time    0.4040: real time    0.4040
     EDDAV:  cpu time    2.9920: real time    2.9920
       DOS:  cpu time    0.0005: real time    0.0005
    CHARGE:  cpu time    0.2237: real time    0.2236
    MIXING:  cpu time    0.0075: real time    0.0075
    --------------------------------------------
      LOOP:  cpu time    3.6458: real time    3.6457

 eigenvalue-minimisations  :  8392
 total energy-change (2. order) : 0.3392415E+00  (-0.5811391E-01)
 number of electron      96.0000003 magnetization 
 augmentation part       -1.6245958 magnetization 

 Broyden mixing:
  rms(total) = 0.63521E+00    rms(broyden)= 0.63521E+00
  rms(prec ) = 0.11193E+01
  weight for this iteration     100.00

 eigenvalues of (default mixing * dielectric matrix)
  average eigenvalue GAMMA=   0.9549
  2.3702  0.9631  0.9631  0.6379  0.2996  0.4956

 Free energy of the ion-electron system (eV)
  ---------------------------------------------------
  alpha Z        PSCENC =       520.90633069
  Ewald energy   TEWEN  =     -6846.37346550
  -Hartree energ DENC   =     -1385.55945261
  -exchange      EXHF   =         0.00000000
  -V(xc)+E(xc)   XCENC  =       254.60238948
  PAW double counting   =      7300.21844556    -7221.27269794
  entropy T*S    EENTRO =        -0.00000000
  eigenvalues    EBANDS =      -439.45788305
  atomic energy  EATOM  =      7711.15510957
  Solvation  Ediel_sol  =         0.00000000
  ---------------------------------------------------
  free energy    TOTEN  =      -105.78122379 eV

  energy without entropy =     -105.78122379  energy(sigma->0) =     -105.78122379


--------------------------------------------------------------------------------------------------------




--------------------------------------- Iteration      1(  12)  ---------------------------------------


    POTLOK:  cpu time    0.0181: real time    0.0181
    SETDIJ:  cpu time    0.4039: real time    0.4038
     EDDAV:  cpu time    2.8112: real time    2.8115
       DOS:  cpu time    0.0006: real time    0.0006
    CHARGE:  cpu time    0.2232: real time    0.2231
    MIXING:  cpu time    0.0075: real time    0.0075
    --------------------------------------------
      LOOP:  cpu time    3.4643: real time    3.4646

 eigenvalue-minimisations  :  7784
 total energy-change (2. order) : 0.1468828E+00  (-0.1426628E-01)
 number of electron      96.0000003 magnetization 
 augmentation part       -1.6725267 magnetization 

 Broyden mixing:
  rms(total) = 0.55888E+00    rms(broyden)= 0.55888E+00
  rms(prec ) = 0.99482E+00
  weight for this iteration     100.00

 eigenvalues of (default mixing * dielectric matrix)
  average eigenvalue GAMMA=   0.8556
  2.3742  0.9640  0.9640  0.6074  0.3887  0.3887  0.3019

 Free energy of the ion-electron system (eV)
  ---------------------------------------------------
  alpha Z        PSCENC =       520.90633069
  Ewald energy   TEWEN  =     -6846.37346550
  -Hartree energ DENC   =     -1384.37397550
  -exchange      EXHF   =         0.00000000
  -V(xc)+E(xc)   XCENC  =       254.53121105
  PAW double counting   =      7308.20525328    -7228.47333366
  entropy T*S    EENTRO =        -0.00000000
  eigenvalues    EBANDS =      -441.21147089
  atomic energy  EATOM  =      7711.15510957
  Solvation  Ediel_sol  =         0.00000000
  ---------------------------------------------------
  free energy    TOTEN  =      -105.63434096 eV

  energy without entropy =     -105.63434096  energy(sigma->0) =     -105.63434096


--------------------------------------------------------------------------------------------------------




--------------------------------------- Iteration      1(  13)  ---------------------------------------


    POTLOK:  cpu time    0.0180: real time    0.0180
    SETDIJ:  cpu time    0.4029: real time    0.4029
     EDDAV:  cpu time    2.7666: real time    2.7667
       DOS:  cpu time    0.0005: real time    0.0005
    CHARGE:  cpu time    0.2216: real time    0.2216
    MIXING:  cpu time    0.0075: real time    0.0075
    --------------------------------------------
      LOOP:  cpu time    3.4171: real time    3.4172

 eigenvalue-minimisations  :  7640
 total energy-change (2. order) :-0.1126904E+00  (-0.5480382E-02)
 number of electron      96.0000003 magnetization 
 augmentation part       -1.7230585 magnetization 

 Broyden mixing:
  rms(total) = 0.63345E+00    rms(broyden)= 0.63345E+00
  rms(prec ) = 0.11077E+01
  weight for this iteration     100.00

 eigenvalues of (default mixing * dielectric matrix)
  average eigenvalue GAMMA=   1.7028
  4.6460  2.2107  2.2107  2.0484  0.3000  0.5407  0.8331  0.8331

 Free energy of the ion-electron system (eV)
  ---------------------------------------------------
  alpha Z        PSCENC =       520.90633069
  Ewald energy   TEWEN  =     -6846.37346550
  -Hartree energ DENC   =     -1384.93006484
  -exchange      EXHF   =         0.00000000
  -V(xc)+E(xc)   XCENC  =       254.40921570
  PAW double counting   =      7310.76572854    -7230.36606524
  entropy T*S    EENTRO =        -0.00000000
  eigenvalues    EBANDS =      -441.31382027
  atomic energy  EATOM  =      7711.15510957
  Solvation  Ediel_sol  =         0.00000000
  ---------------------------------------------------
  free energy    TOTEN  =      -105.74703135 eV

  energy without entropy =     -105.74703135  energy(sigma->0) =     -105.74703135


--------------------------------------------------------------------------------------------------------




--------------------------------------- Iteration      1(  14)  ---------------------------------------


    POTLOK:  cpu time    0.0180: real time    0.0180
    SETDIJ:  cpu time    0.4043: real time    0.4043
     EDDAV:  cpu time    2.1307: real time    2.1308
       DOS:  cpu time    0.0006: real time    0.0006
    CHARGE:  cpu time    0.2227: real time    0.2226
    MIXING:  cpu time    0.0077: real time    0.0077
    --------------------------------------------
      LOOP:  cpu time    2.7840: real time    2.7840

 eigenvalue-minimisations  :  5416
 total energy-change (2. order) : 0.7827471E+00  (-0.7184704E+00)
 number of electron      96.0000003 magnetization 
 augmentation part       -0.8161830 magnetization 

 Broyden mixing:
  rms(total) = 0.56474E+00    rms(broyden)= 0.56473E+00
  rms(prec ) = 0.66939E+00
  weight for this iteration     100.00

 eigenvalues of (default mixing * dielectric matrix)
  average eigenvalue GAMMA=   1.3669
  2.5651  2.5651  2.7667  1.2011  1.2011  0.8494  0.5418  0.3000  0.3121

 Free energy of the ion-electron system (eV)
  ---------------------------------------------------
  alpha Z        PSCENC =       520.90633069
  Ewald energy   TEWEN  =     -6846.37346550
  -Hartree energ DENC   =     -1369.62337971
  -exchange      EXHF   =         0.00000000
  -V(xc)+E(xc)   XCENC  =       252.88262227
  PAW double counting   =      7354.52198744    -7260.31557436
  entropy T*S    EENTRO =        -0.00000000
  eigenvalues    EBANDS =      -468.11791460
  atomic energy  EATOM  =      7711.15510957
  Solvation  Ediel_sol  =         0.00000000
  ---------------------------------------------------
  free energy    TOTEN  =      -104.96428421 eV

  energy without entropy =     -104.96428421  energy(sigma->0) =     -104.96428421


--------------------------------------------------------------------------------------------------------




--------------------------------------- Iteration      1(  15)  ---------------------------------------


    POTLOK:  cpu time    0.0180: real time    0.0180
    SETDIJ:  cpu time    0.4032: real time    0.4032
     EDDAV:  cpu time    2.6679: real time    2.6680
       DOS:  cpu time    0.0006: real time    0.0006
    CHARGE:  cpu time    0.2239: real time    0.2239
    MIXING:  cpu time    0.0077: real time    0.0077
    --------------------------------------------
      LOOP:  cpu time    3.3212: real time    3.3214

 eigenvalue-minimisations  :  7320
 total energy-change (2. order) : 0.6164058E-02  (-0.4323214E-01)
 number of electron      96.0000003 magnetization 
 augmentation part       -1.0136687 magnetization 

 Broyden mixing:
  rms(total) = 0.35267E+00    rms(broyden)= 0.35267E+00
  rms(prec ) = 0.42201E+00
  weight for this iteration     100.00

 eigenvalues of (default mixing * dielectric matrix)
  average eigenvalue GAMMA=   1.3136
  2.5635  2.5635  2.7334  1.8813  0.8850  0.8850  0.3000  0.5419  0.4581  0.3240

 Free energy of the ion-electron system (eV)
  ---------------------------------------------------
  alpha Z        PSCENC =       520.90633069
  Ewald energy   TEWEN  =     -6846.37346550
  -Hartree energ DENC   =     -1364.96057212
  -exchange      EXHF   =         0.00000000
  -V(xc)+E(xc)   XCENC  =       252.43245058
  PAW double counting   =      7360.64042645    -7264.52234894
  entropy T*S    EENTRO =        -0.00000000
  eigenvalues    EBANDS =      -474.23605087
  atomic energy  EATOM  =      7711.15510957
  Solvation  Ediel_sol  =         0.00000000
  ---------------------------------------------------
  free energy    TOTEN  =      -104.95812015 eV

  energy without entropy =     -104.95812015  energy(sigma->0) =     -104.95812015


--------------------------------------------------------------------------------------------------------




--------------------------------------- Iteration      1(  16)  ---------------------------------------


    POTLOK:  cpu time    0.0181: real time    0.0181
    SETDIJ:  cpu time    0.4043: real time    0.4043
     EDDAV:  cpu time    2.9048: real time    2.9050
       DOS:  cpu time    0.0006: real time    0.0006
    CHARGE:  cpu time    0.2235: real time    0.2236
    MIXING:  cpu time    0.0074: real time    0.0074
    --------------------------------------------
      LOOP:  cpu time    3.5588: real time    3.5590

 eigenvalue-minimisations  :  8120
 total energy-change (2. order) :-0.1507045E-01  (-0.5960819E-02)
 number of electron      96.0000003 magnetization 
 augmentation part       -1.0029775 magnetization 

 Broyden mixing:
  rms(total) = 0.39335E+00    rms(broyden)= 0.39335E+00
  rms(prec ) = 0.47556E+00
  weight for this iteration     100.00

 eigenvalues of (default mixing * dielectric matrix)
  average eigenvalue GAMMA=   1.2793
  2.7473  2.5322  2.5322  2.0793  0.8559  0.8559  0.5736  0.5736  0.3000  0.5414
  0.4812

 Free energy of the ion-electron system (eV)
  ---------------------------------------------------
  alpha Z        PSCENC =       520.90633069
  Ewald energy   TEWEN  =     -6846.37346550
  -Hartree energ DENC   =     -1365.49782193
  -exchange      EXHF   =         0.00000000
  -V(xc)+E(xc)   XCENC  =       252.58573672
  PAW double counting   =      7361.46392349    -7266.09014233
  entropy T*S    EENTRO =        -0.00000000
  eigenvalues    EBANDS =      -473.12286131
  atomic energy  EATOM  =      7711.15510957
  Solvation  Ediel_sol  =         0.00000000
  ---------------------------------------------------
  free energy    TOTEN  =      -104.97319060 eV

  energy without entropy =     -104.97319060  energy(sigma->0) =     -104.97319060


--------------------------------------------------------------------------------------------------------




--------------------------------------- Iteration      1(  17)  ---------------------------------------


    POTLOK:  cpu time    0.0182: real time    0.0182
    SETDIJ:  cpu time    0.4042: real time    0.4042
     EDDAV:  cpu time    2.2733: real time    2.2733
       DOS:  cpu time    0.0006: real time    0.0006
    CHARGE:  cpu time    0.2229: real time    0.2229
    MIXING:  cpu time    0.0075: real time    0.0075
    --------------------------------------------
      LOOP:  cpu time    2.9268: real time    2.9267

 eigenvalue-minimisations  :  5920
 total energy-change (2. order) : 0.4959936E-01  (-0.4619606E-01)
 number of electron      96.0000003 magnetization 
 augmentation part       -1.2546129 magnetization 

 Broyden mixing:
  rms(total) = 0.14541E+00    rms(broyden)= 0.14541E+00
  rms(prec ) = 0.20436E+00
  weight for this iteration     100.00

 eigenvalues of (default mixing * dielectric matrix)
  average eigenvalue GAMMA=   1.3730
  2.6249  2.6249  2.0823  2.0823  1.5172  1.5172  1.0619  0.3000  0.8131  0.8131
  0.5402  0.4983

 Free energy of the ion-electron system (eV)
  ---------------------------------------------------
  alpha Z        PSCENC =       520.90633069
  Ewald energy   TEWEN  =     -6846.37346550
  -Hartree energ DENC   =     -1367.96360439
  -exchange      EXHF   =         0.00000000
  -V(xc)+E(xc)   XCENC  =       252.90799758
  PAW double counting   =      7342.01621687    -7249.23835564
  entropy T*S    EENTRO =        -0.00000000
  eigenvalues    EBANDS =      -468.33382043
  atomic energy  EATOM  =      7711.15510957
  Solvation  Ediel_sol  =         0.00000000
  ---------------------------------------------------
  free energy    TOTEN  =      -104.92359125 eV

  energy without entropy =     -104.92359125  energy(sigma->0) =     -104.92359125


--------------------------------------------------------------------------------------------------------




--------------------------------------- Iteration      1(  18)  ---------------------------------------


    POTLOK:  cpu time    0.0181: real time    0.0181
    SETDIJ:  cpu time    0.4027: real time    0.4027
     EDDAV:  cpu time    2.4868: real time    2.4869
       DOS:  cpu time    0.0005: real time    0.0005
    CHARGE:  cpu time    0.2234: real time    0.2233
    MIXING:  cpu time    0.0079: real time    0.0079
    --------------------------------------------
      LOOP:  cpu time    3.1394: real time    3.1395

 eigenvalue-minimisations  :  6640
 total energy-change (2. order) :-0.1144214E-01  (-0.1715902E-01)
 number of electron      96.0000003 magnetization 
 augmentation part       -1.1246197 magnetization 

 Broyden mixing:
  rms(total) = 0.16033E+00    rms(broyden)= 0.16033E+00
  rms(prec ) = 0.21514E+00
  weight for this iteration     100.00

 eigenvalues of (default mixing * dielectric matrix)
  average eigenvalue GAMMA=   1.3362
  2.2532  2.2532  3.0152  2.5898  1.3983  1.3983  0.3000  0.8334  0.8334  0.7573
  0.7573  0.5408  0.4408

 Free energy of the ion-electron system (eV)
  ---------------------------------------------------
  alpha Z        PSCENC =       520.90633069
  Ewald energy   TEWEN  =     -6846.37346550
  -Hartree energ DENC   =     -1367.86655379
  -exchange      EXHF   =         0.00000000
  -V(xc)+E(xc)   XCENC  =       253.24934199
  PAW double counting   =      7317.59908158    -7226.31860449
  entropy T*S    EENTRO =        -0.00000000
  eigenvalues    EBANDS =      -467.28627343
  atomic energy  EATOM  =      7711.15510957
  Solvation  Ediel_sol  =         0.00000000
  ---------------------------------------------------
  free energy    TOTEN  =      -104.93503339 eV

  energy without entropy =     -104.93503339  energy(sigma->0) =     -104.93503339


--------------------------------------------------------------------------------------------------------




--------------------------------------- Iteration      1(  19)  ---------------------------------------


    POTLOK:  cpu time    0.0182: real time    0.0182
    SETDIJ:  cpu time    0.4014: real time    0.4014
     EDDAV:  cpu time    2.5532: real time    2.5532
       DOS:  cpu time    0.0005: real time    0.0005
    CHARGE:  cpu time    0.2243: real time    0.2243
    MIXING:  cpu time    0.0079: real time    0.0079
    --------------------------------------------
      LOOP:  cpu time    3.2056: real time    3.2055

 eigenvalue-minimisations  :  6904
 total energy-change (2. order) : 0.6881429E-02  (-0.1226538E-02)
 number of electron      96.0000003 magnetization 
 augmentation part       -1.1691740 magnetization 

 Broyden mixing:
  rms(total) = 0.10665E+00    rms(broyden)= 0.10665E+00
  rms(prec ) = 0.15110E+00
  weight for this iteration     100.00

 eigenvalues of (default mixing * dielectric matrix)
  average eigenvalue GAMMA=   1.2859
  2.3173  2.3173  2.9817  2.6068  1.2615  1.2615  0.8362  0.8362  0.3000  0.8127
  0.8127  0.6106  0.5412  0.5065

 Free energy of the ion-electron system (eV)
  ---------------------------------------------------
  alpha Z        PSCENC =       520.90633069
  Ewald energy   TEWEN  =     -6846.37346550
  -Hartree energ DENC   =     -1368.51192132
  -exchange      EXHF   =         0.00000000
  -V(xc)+E(xc)   XCENC  =       253.35751133
  PAW double counting   =      7308.42191682    -7217.79150024
  entropy T*S    EENTRO =        -0.00000000
  eigenvalues    EBANDS =      -466.09213330
  atomic energy  EATOM  =      7711.15510957
  Solvation  Ediel_sol  =         0.00000000
  ---------------------------------------------------
  free energy    TOTEN  =      -104.92815196 eV

  energy without entropy =     -104.92815196  energy(sigma->0) =     -104.92815196


--------------------------------------------------------------------------------------------------------




--------------------------------------- Iteration      1(  20)  ---------------------------------------


    POTLOK:  cpu time    0.0181: real time    0.0181
    SETDIJ:  cpu time    0.4038: real time    0.4037
     EDDAV:  cpu time    2.3431: real time    2.3430
       DOS:  cpu time    0.0006: real time    0.0006
    CHARGE:  cpu time    0.2237: real time    0.2237
    MIXING:  cpu time    0.0078: real time    0.0078
    --------------------------------------------
      LOOP:  cpu time    2.9969: real time    2.9969

 eigenvalue-minimisations  :  6152
 total energy-change (2. order) : 0.6996827E-02  (-0.3629078E-02)
 number of electron      96.0000003 magnetization 
 augmentation part       -1.2377641 magnetization 

 Broyden mixing:
  rms(total) = 0.24648E-01    rms(broyden)= 0.24646E-01
  rms(prec ) = 0.30479E-01
  weight for this iteration     100.00

 eigenvalues of (default mixing * dielectric matrix)
  average eigenvalue GAMMA=   1.4233
  2.9191  2.9191  2.4645  2.4645  1.5236  1.5236  1.4689  1.4689  0.3000  0.8091
  0.8091  0.8346  0.8346  0.5408  0.4689

 Free energy of the ion-electron system (eV)
  ---------------------------------------------------
  alpha Z        PSCENC =       520.90633069
  Ewald energy   TEWEN  =     -6846.37346550
  -Hartree energ DENC   =     -1369.04599811
  -exchange      EXHF   =         0.00000000
  -V(xc)+E(xc)   XCENC  =       253.43881782
  PAW double counting   =      7295.65388356    -7205.84419123
  entropy T*S    EENTRO =        -0.00000000
  eigenvalues    EBANDS =      -464.81164193
  atomic energy  EATOM  =      7711.15510957
  Solvation  Ediel_sol  =         0.00000000
  ---------------------------------------------------
  free energy    TOTEN  =      -104.92115513 eV

  energy without entropy =     -104.92115513  energy(sigma->0) =     -104.92115513


--------------------------------------------------------------------------------------------------------




--------------------------------------- Iteration      1(  21)  ---------------------------------------


    POTLOK:  cpu time    0.0181: real time    0.0181
    SETDIJ:  cpu time    0.4019: real time    0.4019
     EDDAV:  cpu time    2.5425: real time    2.5426
       DOS:  cpu time    0.0006: real time    0.0006
    CHARGE:  cpu time    0.2227: real time    0.2227
    MIXING:  cpu time    0.0079: real time    0.0079
    --------------------------------------------
      LOOP:  cpu time    3.1938: real time    3.1938

 eigenvalue-minimisations  :  6864
 total energy-change (2. order) : 0.2597725E-03  (-0.2291402E-03)
 number of electron      96.0000003 magnetization 
 augmentation part       -1.2500965 magnetization 

 Broyden mixing:
  rms(total) = 0.12093E-01    rms(broyden)= 0.12092E-01
  rms(prec ) = 0.12625E-01
  weight for this iteration     100.00

 eigenvalues of (default mixing * dielectric matrix)
  average eigenvalue GAMMA=   1.4251
  3.3822  2.3728  2.3728  2.4139  1.5199  1.5199  2.0410  0.3000  1.1376  1.1376
  0.8992  0.8992  0.8980  0.8980  0.5408  0.4683

 Free energy of the ion-electron system (eV)
  ---------------------------------------------------
  alpha Z        PSCENC =       520.90633069
  Ewald energy   TEWEN  =     -6846.37346550
  -Hartree energ DENC   =     -1369.43062888
  -exchange      EXHF   =         0.00000000
  -V(xc)+E(xc)   XCENC  =       253.47086578
  PAW double counting   =      7290.53878338    -7200.98589889
  entropy T*S    EENTRO =        -0.00000000
  eigenvalues    EBANDS =      -464.20199151
  atomic energy  EATOM  =      7711.15510957
  Solvation  Ediel_sol  =         0.00000000
  ---------------------------------------------------
  free energy    TOTEN  =      -104.92089536 eV

  energy without entropy =     -104.92089536  energy(sigma->0) =     -104.92089536


--------------------------------------------------------------------------------------------------------




--------------------------------------- Iteration      1(  22)  ---------------------------------------


    POTLOK:  cpu time    0.0181: real time    0.0181
    SETDIJ:  cpu time    0.4008: real time    0.4008
     EDDAV:  cpu time    2.7947: real time    2.7949
       DOS:  cpu time    0.0006: real time    0.0006
    CHARGE:  cpu time    0.2237: real time    0.2237
    MIXING:  cpu time    0.0078: real time    0.0078
    --------------------------------------------
      LOOP:  cpu time    3.4457: real time    3.4459

 eigenvalue-minimisations  :  7736
 total energy-change (2. order) :-0.4880768E-04  (-0.1952888E-04)
 number of electron      96.0000003 magnetization 
 augmentation part       -1.2460714 magnetization 

 Broyden mixing:
  rms(total) = 0.10701E-01    rms(broyden)= 0.10701E-01
  rms(prec ) = 0.11811E-01
  weight for this iteration     100.00

 eigenvalues of (default mixing * dielectric matrix)
  average eigenvalue GAMMA=   1.4374
  3.5508  2.5406  2.5406  1.5199  1.5199  2.1601  2.1601  1.3362  1.2700  1.2700
  0.3000  0.8383  0.8383  0.8319  0.5408  0.7500  0.4682

 Free energy of the ion-electron system (eV)
  ---------------------------------------------------
  alpha Z        PSCENC =       520.90633069
  Ewald energy   TEWEN  =     -6846.37346550
  -Hartree energ DENC   =     -1369.43269995
  -exchange      EXHF   =         0.00000000
  -V(xc)+E(xc)   XCENC  =       253.45711748
  PAW double counting   =      7290.86649201    -7201.19457525
  entropy T*S    EENTRO =        -0.00000000
  eigenvalues    EBANDS =      -464.30525322
  atomic energy  EATOM  =      7711.15510957
  Solvation  Ediel_sol  =         0.00000000
  ---------------------------------------------------
  free energy    TOTEN  =      -104.92094416 eV

  energy without entropy =     -104.92094416  energy(sigma->0) =     -104.92094416


--------------------------------------------------------------------------------------------------------




--------------------------------------- Iteration      1(  23)  ---------------------------------------


    POTLOK:  cpu time    0.0182: real time    0.0182
    SETDIJ:  cpu time    0.4008: real time    0.4007
     EDDAV:  cpu time    2.7820: real time    2.7822
       DOS:  cpu time    0.0006: real time    0.0006
    CHARGE:  cpu time    0.2228: real time    0.2228
    MIXING:  cpu time    0.0080: real time    0.0080
    --------------------------------------------
      LOOP:  cpu time    3.4324: real time    3.4325

 eigenvalue-minimisations  :  7680
 total energy-change (2. order) : 0.6819087E-05  (-0.3090615E-05)
 number of electron      96.0000003 magnetization 
 augmentation part       -1.2464119 magnetization 

 Broyden mixing:
  rms(total) = 0.73287E-02    rms(broyden)= 0.73287E-02
  rms(prec ) = 0.87956E-02
  weight for this iteration     100.00

 eigenvalues of (default mixing * dielectric matrix)
  average eigenvalue GAMMA=   1.4325
  2.5032  2.5032  3.2518  2.6504  2.6504  1.5135  1.5135  1.2266  1.2266  0.3000
  1.0200  1.0200  0.8416  0.8416  0.8562  0.8562  0.5408  0.4683

 Free energy of the ion-electron system (eV)
  ---------------------------------------------------
  alpha Z        PSCENC =       520.90633069
  Ewald energy   TEWEN  =     -6846.37346550
  -Hartree energ DENC   =     -1369.46929368
  -exchange      EXHF   =         0.00000000
  -V(xc)+E(xc)   XCENC  =       253.46480129
  PAW double counting   =      7291.24004385    -7201.60732134
  entropy T*S    EENTRO =        -0.00000000
  eigenvalues    EBANDS =      -464.23714222
  atomic energy  EATOM  =      7711.15510957
  Solvation  Ediel_sol  =         0.00000000
  ---------------------------------------------------
  free energy    TOTEN  =      -104.92093735 eV

  energy without entropy =     -104.92093735  energy(sigma->0) =     -104.92093735


--------------------------------------------------------------------------------------------------------




--------------------------------------- Iteration      1(  24)  ---------------------------------------


    POTLOK:  cpu time    0.0180: real time    0.0180
    SETDIJ:  cpu time    0.4010: real time    0.4010
     EDDAV:  cpu time    2.9629: real time    2.9630
       DOS:  cpu time    0.0007: real time    0.0007
    CHARGE:  cpu time    0.2214: real time    0.2214
    MIXING:  cpu time    0.0076: real time    0.0076
    --------------------------------------------
[...]
     31       2.4693      2.00000
     32       2.4693      2.00000
     33       3.1891      2.00000
     34       3.1891      2.00000
     35       3.3021      2.00000
     36       3.3887      2.00000
     37       3.6821      2.00000
     38       3.7176      2.00000
     39       3.8795      2.00000
     40       3.8795      2.00000
     41       4.2046      2.00000
     42       4.2046      2.00000
     43       4.3289      2.00000
     44       4.3409      2.00000
     45       4.3667      2.00000
     46       4.5185      2.00000
     47       4.6903      2.00000
     48       4.6903      2.00000
     49       6.9094      0.00000
     50       6.9094      0.00000
     51       6.9725      0.00000
     52       7.0367      0.00000
     53       7.0406      0.00000
     54       7.0472      0.00000
     55       7.0472      0.00000
     56       7.0593      0.00000
     57       7.0960      0.00000
     58       7.0960      0.00000
     59       7.1038      0.00000
     60       7.1137      0.00000
     61       7.1947      0.00000
     62       7.1957      0.00000
     63       7.1957      0.00000
     64       7.1961      0.00000

 k-point    34 :       0.4444    0.4444    0.3333
  band No.  band energies     occupation 
      1     -27.2844      2.00000
      2     -27.2698      2.00000
      3     -27.2698      2.00000
      4     -27.2627      2.00000
      5     -13.1835      2.00000
      6     -13.1686      2.00000
      7     -13.1686      2.00000
      8     -13.1270      2.00000
      9     -11.5445      2.00000
     10     -11.4227      2.00000
     11     -11.4227      2.00000
     12     -11.1629      2.00000
     13      -9.8771      2.00000
     14      -9.8701      2.00000
     15      -9.8701      2.00000
     16      -9.8294      2.00000
     17      -9.6826      2.00000
     18      -9.4423      2.00000
     19      -9.4423      2.00000
     20      -9.3424      2.00000
     21      -7.4532      2.00000
     22      -7.4164      2.00000
     23      -7.4164      2.00000
     24      -7.4035      2.00000
     25       2.1619      2.00000
     26       2.1680      2.00000
     27       2.2667      2.00000
     28       2.2667      2.00000
     29       2.2895      2.00000
     30       2.2895      2.00000
     31       2.3117      2.00000
     32       2.3527      2.00000
     33       3.4042      2.00000
     34       3.4581      2.00000
     35       3.4581      2.00000
     36       3.5522      2.00000
     37       3.7653      2.00000
     38       3.7653      2.00000
     39       3.7666      2.00000
     40       3.8304      2.00000
     41       4.1530      2.00000
     42       4.1704      2.00000
     43       4.2075      2.00000
     44       4.2075      2.00000
     45       4.4521      2.00000
     46       4.5575      2.00000
     47       4.5575      2.00000
     48       4.6156      2.00000
     49       6.8999      0.00000
     50       6.9223      0.00000
     51       6.9223      0.00000
     52       6.9681      0.00000
     53       7.0512      0.00000
     54       7.0512      0.00000
     55       7.0556      0.00000
     56       7.0637      0.00000
     57       7.0728      0.00000
     58       7.0729      0.00000
     59       7.0803      0.00000
     60       7.0803      0.00000
     61       7.1953      0.00000
     62       7.1964      0.00000
     63       7.1964      0.00000
     64       7.1967      0.00000

 k-point    35 :       0.4444    0.4444    0.4444
  band No.  band energies     occupation 
      1     -27.2771      2.00000
      2     -27.2695      2.00000
      3     -27.2695      2.00000
      4     -27.2695      2.00000
      5     -13.2306      2.00000
      6     -13.2306      2.00000
      7     -13.2306      2.00000
      8     -13.2102      2.00000
      9     -11.2154      2.00000
     10     -11.2154      2.00000
     11     -11.2154      2.00000
     12     -11.0437      2.00000
     13      -9.8609      2.00000
     14      -9.8609      2.00000
     15      -9.8609      2.00000
     16      -9.8443      2.00000
     17      -9.8443      2.00000
     18      -9.6857      2.00000
     19      -9.6857      2.00000
     20      -9.6857      2.00000
     21      -7.3329      2.00000
     22      -7.3161      2.00000
     23      -7.3161      2.00000
     24      -7.3161      2.00000
     25       2.1622      2.00000
     26       2.1622      2.00000
     27       2.2172      2.00000
     28       2.2172      2.00000
     29       2.2172      2.00000
     30       2.2235      2.00000
     31       2.2235      2.00000
     32       2.2235      2.00000
     33       3.6672      2.00000
     34       3.6672      2.00000
     35       3.6672      2.00000
     36       3.6787      2.00000
     37       3.7903      2.00000
     38       3.7903      2.00000
     39       3.7903      2.00000
     40       3.8852      2.00000
     41       4.2452      2.00000
     42       4.2452      2.00000
     43       4.2544      2.00000
     44       4.2544      2.00000
     45       4.2544      2.00000
     46       4.3768      2.00000
     47       4.3768      2.00000
     48       4.3768      2.00000
     49       6.8905      0.00000
     50       6.8905      0.00000
     51       6.8905      0.00000
     52       6.9153      0.00000
     53       7.0507      0.00000
     54       7.0507      0.00000
     55       7.0507      0.00000
     56       7.0567      0.00000
     57       7.0567      0.00000
     58       7.0610      0.00000
     59       7.0610      0.00000
     60       7.0610      0.00000
     61       7.1947      0.00000
     62       7.1955      0.00000
     63       7.1955      0.00000
     64       7.1955      0.00000


--------------------------------------------------------------------------------------------------------


 soft charge-density along one line, spin component           1
         0         1         2         3         4         5         6         7         8         9
 total charge-density along one line
 
 pseudopotential strength for first ion, spin component:           1
 22.980 -17.141   0.000   0.000  -0.000  -0.000  -0.000   0.000
-17.141   8.623  -0.000  -0.000   0.000   0.000   0.000  -0.000
  0.000  -0.000  11.817  -0.000   0.000  -5.770   0.000  -0.000
  0.000  -0.000  -0.000  11.817  -0.000   0.000  -5.770   0.000
 -0.000   0.000   0.000  -0.000  11.817  -0.000   0.000  -5.770
 -0.000   0.000  -5.770   0.000  -0.000  14.051   0.000  -0.000
 -0.000   0.000   0.000  -5.770   0.000   0.000  14.051   0.000
  0.000  -0.000  -0.000   0.000  -5.770  -0.000   0.000  14.051
  0.000  -0.000  -0.000  -0.000   0.000  -0.000  -0.000   0.000
 -0.000   0.000   0.000   0.000  -0.000   0.000   0.000  -0.000
  0.000   0.000  -0.000   0.000   0.000   0.000   0.000   0.000
 -0.000   0.000  -0.000  -0.000   0.000  -0.000  -0.000   0.000
  0.000  -0.000  -0.000   0.000  -0.000  -0.000   0.000  -0.000
 -0.000   0.000   0.000   0.000  -0.000   0.000   0.000  -0.000
  0.000  -0.000  -0.000  -0.000   0.000  -0.000  -0.000   0.000
 -0.000   0.000   0.000  -0.000  -0.000  -0.000  -0.000  -0.000
  0.000  -0.000   0.000   0.000  -0.000   0.000   0.000  -0.000
 -0.000   0.000   0.000  -0.000   0.000  -0.000  -0.000   0.000
 -0.000   0.000   0.010  -0.000  -0.000  -0.007   0.000   0.000
  0.000  -0.000  -0.000   0.000  -0.000  -0.000   0.000  -0.000
 -0.000   0.000   0.008  -0.000   0.000  -0.006   0.000  -0.000
  0.000  -0.000  -0.000  -0.013  -0.000   0.000   0.009   0.000
 -0.000   0.000   0.000  -0.000   0.008  -0.000   0.000  -0.006
 -0.000   0.000  -0.000  -0.000   0.000   0.000   0.000  -0.000
  0.000  -0.000   0.000   0.000  -0.010  -0.000  -0.000   0.007
 -0.000   0.000   0.010  -0.000  -0.000  -0.007   0.000   0.000
  0.000  -0.000  -0.000   0.000  -0.000  -0.000   0.000  -0.000
 -0.000   0.000   0.008  -0.000   0.000  -0.006   0.000  -0.000
  0.000  -0.000  -0.000  -0.013  -0.000   0.000   0.009   0.000
 -0.000   0.000   0.000  -0.000   0.008  -0.000   0.000  -0.006
 -0.000   0.000  -0.000  -0.000   0.000   0.000   0.000  -0.000
  0.000  -0.000   0.000   0.000  -0.010  -0.000  -0.000   0.007
 total augmentation occupancy for first ion, spin component:           1
  1.907  -0.272   0.000   0.000   0.000   0.000   0.000   0.000   0.000   0.000   0.000   0.000   0.000   0.000   0.000   0.000
 -0.272   0.830   0.000   0.000   0.000   0.000   0.000   0.000  -0.000   0.000   0.000   0.000  -0.000  -0.000  -0.000  -0.000
  0.000   0.000   2.048   0.000   0.000  -0.057   0.000  -0.000   0.000   0.000   0.000  -0.000   0.000  -0.000  -0.000  -0.000
  0.000   0.000   0.000   2.048   0.000   0.000  -0.057  -0.000   0.000   0.000  -0.000  -0.000  -0.000  -0.000   0.000   0.000
  0.000   0.000   0.000   0.000   2.048   0.000   0.000  -0.057   0.000  -0.000   0.000  -0.000  -0.000   0.000  -0.000   0.000
  0.000   0.000  -0.057  -0.000  -0.000   0.013  -0.000   0.000  -0.000   0.000  -0.000  -0.000  -0.000  -0.000  -0.000  -0.000
  0.000   0.000  -0.000  -0.057   0.000  -0.000   0.013  -0.000   0.000   0.000   0.000  -0.000   0.000   0.000  -0.000   0.000
  0.000   0.000  -0.000   0.000  -0.057  -0.000  -0.000   0.013   0.000  -0.000   0.000   0.000  -0.000  -0.000   0.000  -0.000
  0.000  -0.000   0.000   0.000   0.000  -0.000   0.000   0.000   0.672   0.000   0.000  -0.000  -0.000   0.127   0.000   0.000
  0.000  -0.000   0.000   0.000  -0.000   0.000   0.000  -0.000   0.000   0.672   0.000   0.000  -0.000   0.000   0.127  -0.000
  0.000  -0.000   0.000  -0.000   0.000   0.000  -0.000   0.000  -0.000   0.000   0.243   0.000   0.000  -0.000   0.000   0.041
  0.000   0.000  -0.000  -0.000  -0.000  -0.000  -0.000   0.000  -0.000   0.000   0.000   0.672  -0.000   0.000  -0.000  -0.000
  0.000  -0.000  -0.000   0.000  -0.000   0.000   0.000   0.000  -0.000  -0.000   0.000   0.000   0.243   0.000  -0.000   0.000
  0.000  -0.000  -0.000  -0.000   0.000  -0.000   0.000  -0.000   0.127   0.000   0.000   0.000  -0.000   0.025  -0.000   0.000
  0.000  -0.000  -0.000   0.000  -0.000  -0.000  -0.000   0.000   0.000   0.127   0.000  -0.000  -0.000  -0.000   0.025   0.000
  0.000   0.000  -0.000   0.000   0.000  -0.000  -0.000  -0.000  -0.000   0.000   0.041  -0.000  -0.000   0.000  -0.000   0.007
  0.000  -0.000   0.000   0.000   0.000   0.000   0.000   0.000   0.000  -0.000   0.000   0.127   0.000  -0.000   0.000   0.000
  0.000   0.000  -0.000  -0.000  -0.000   0.000  -0.000   0.000   0.000   0.000   0.000   0.000   0.041  -0.000  -0.000   0.000
  0.000  -0.000   0.212   0.000   0.000  -0.110  -0.000  -0.000   0.000   0.000  -0.000   0.000  -0.000   0.000   0.000  -0.000
 -0.000   0.000  -0.000   0.000   0.000   0.000  -0.000  -0.000  -0.000   0.000   0.000   0.000  -0.000  -0.000   0.000  -0.000
  0.000   0.000   0.164  -0.000  -0.000  -0.086   0.000  -0.000   0.000  -0.000   0.000   0.000  -0.000  -0.000   0.000   0.000
 -0.000  -0.000   0.000  -0.269   0.000   0.000   0.140   0.000   0.000   0.000   0.000   0.000  -0.000   0.000   0.000   0.000
  0.000  -0.000   0.000   0.000   0.164  -0.000   0.000  -0.086   0.000   0.000   0.000  -0.000  -0.000   0.000  -0.000   0.000
  0.000   0.000   0.000  -0.000  -0.000  -0.000   0.000  -0.000   0.000  -0.000   0.000   0.000  -0.000   0.000   0.000  -0.000
  0.000  -0.000  -0.000  -0.000  -0.212  -0.000  -0.000   0.110  -0.000   0.000  -0.000   0.000   0.000   0.000   0.000  -0.000
 -0.000   0.000  -0.275  -0.000  -0.000   0.132  -0.000  -0.000   0.000   0.000  -0.000   0.000  -0.000   0.000  -0.000  -0.000
 -0.000  -0.000   0.000   0.000   0.000  -0.000  -0.000  -0.000   0.000   0.000  -0.000  -0.000   0.000  -0.000   0.000  -0.000
  0.000   0.000  -0.213  -0.000   0.000   0.102   0.000   0.000   0.000   0.000   0.000  -0.000  -0.000   0.000  -0.000   0.000
  0.000   0.000   0.000   0.348  -0.000   0.000  -0.167   0.000  -0.000   0.000  -0.000   0.000   0.000  -0.000  -0.000   0.000
  0.000   0.000  -0.000  -0.000  -0.213   0.000  -0.000   0.102   0.000   0.000   0.000  -0.000   0.000  -0.000   0.000   0.000
 -0.000  -0.000  -0.000   0.000   0.000   0.000  -0.000   0.000   0.000  -0.000   0.000  -0.000   0.000  -0.000  -0.000   0.000
 -0.000   0.000   0.000  -0.000   0.275   0.000   0.000  -0.132   0.000   0.000   0.000   0.000   0.000   0.000   0.000  -0.000


------------------------ aborting loop because EDIFF is reached ----------------------------------------


    CHARGE:  cpu time    0.2278: real time    0.2278
    FORLOC:  cpu time    0.0081: real time    0.0085
    FORNL :  cpu time    1.0169: real time    1.0169
    STRESS:  cpu time    2.5602: real time    2.5601
    FORCOR:  cpu time    0.0202: real time    0.0202
    FORHAR:  cpu time    0.0054: real time    0.0054
    MIXING:  cpu time    0.0015: real time    0.0015
    OFIELD:  cpu time    0.0001: real time    0.0001

  FORCE on cell =-STRESS in cart. coord.  units (eV):
  Direction    XX          YY          ZZ          XY          YZ          ZX
  --------------------------------------------------------------------------------------
  Alpha Z   520.90633   520.90633   520.90633
  Ewald   -2282.12975 -2282.12975 -2282.12975     0.00000    -0.00000     0.00000
  Hartree   456.51429   456.51429   456.51429    -0.00000    -0.00000    -0.00000
  E(xc)    -459.76445  -459.76445  -459.76445    -0.00000     0.00000    -0.00000
  Local    -172.79722  -172.79722  -172.79722     0.00000     0.00000     0.00000
  n-local    67.14380    68.17916    68.86470     0.25933     0.02515     0.09743
  augment   -55.66932   -55.66932   -55.66932    -0.00000     0.00000     0.00000
  Kinetic  1920.67442  1924.28284  1928.56976    -0.81110     0.30618    -0.13408
  Fock        0.00000     0.00000     0.00000     0.00000     0.00000     0.00000
  -------------------------------------------------------------------------------------
  Total      -0.36857    -0.36857    -0.36857    -0.00000    -0.00000     0.00000
  in kB      -3.61303    -3.61303    -3.61303    -0.00000    -0.00000     0.00000
  external pressure =       -3.61 kB  Pullay stress =        0.00 kB


 VOLUME and BASIS-vectors are now :
 -----------------------------------------------------------------------------
  energy-cutoff  :      520.00
  volume of cell :      163.44
      direct lattice vectors                 reciprocal lattice vectors
     5.467450350  0.000000000  0.000000000     0.182900609  0.000000000  0.000000000
     0.000000000  5.467450350  0.000000000     0.000000000  0.182900609  0.000000000
     0.000000000  0.000000000  5.467450350     0.000000000  0.000000000  0.182900609

  length of vectors
     5.467450350  5.467450350  5.467450350     0.182900609  0.182900609  0.182900609


 FORCES acting on ions
    electron-ion (+dipol)            ewald-force                    non-local-force                 convergence-correction
 -----------------------------------------------------------------------------------------------
   -.162E-15 -.698E-15 -.193E-14   -.284E-13 0.284E-13 0.000E+00   0.238E-23 -.174E-22 -.504E-23   -.217E-13 -.237E-13 0.243E-13
   0.262E-13 -.164E-11 0.136E-11   -.142E-13 0.426E-13 0.000E+00   0.678E-23 -.137E-22 -.590E-23   -.280E-13 -.203E-13 0.255E-13
   0.270E-13 0.334E-15 -.393E-12   -.284E-13 0.142E-13 0.000E+00   0.394E-23 0.267E-22 -.274E-22   -.293E-13 -.253E-13 0.246E-13
   0.310E-15 0.341E-13 0.320E-13   -.284E-13 0.284E-13 0.000E+00   -.129E-22 0.511E-23 0.276E-23   -.250E-13 -.208E-13 0.260E-13
   0.218E-12 0.796E-12 -.815E-12   0.108E-13 -.144E-13 -.133E-13   -.149E-17 -.521E-18 0.513E-18   -.260E-13 0.157E-12 0.409E-13
   0.244E-12 0.272E-11 0.171E-11   0.158E-13 -.114E-13 0.177E-13   0.644E-18 -.289E-19 -.278E-17   0.347E-13 -.156E-12 -.363E-13
   0.243E-12 0.174E-11 0.755E-12   0.172E-13 -.177E-13 -.125E-13   0.169E-17 -.720E-20 0.919E-18   0.354E-13 0.331E-13 -.683E-14
   0.218E-12 0.197E-12 -.389E-12   0.163E-13 -.148E-13 0.184E-13   -.417E-17 0.123E-17 0.202E-17   -.239E-13 -.319E-13 0.165E-13
   0.436E-12 0.206E-11 0.321E-11   0.120E-13 -.107E-13 -.183E-13   -.483E-18 0.316E-17 0.113E-17   -.472E-13 -.354E-13 0.457E-13
   -.364E-13 0.115E-13 0.317E-12   0.111E-13 -.137E-13 0.127E-13   0.278E-17 0.103E-18 -.249E-17   0.524E-13 0.361E-13 -.391E-13
   -.364E-13 -.422E-12 -.656E-13   0.125E-13 -.141E-13 -.176E-13   0.263E-17 -.186E-17 -.611E-18   0.539E-13 -.152E-12 -.825E-14
   0.436E-12 0.413E-11 0.112E-11   0.175E-13 -.170E-13 0.134E-13   -.147E-17 -.513E-18 0.144E-17   -.481E-13 0.155E-12 0.184E-13
 -----------------------------------------------------------------------------------------------
   0.178E-11 0.962E-11 0.684E-11   0.136E-13 -.180E-15 0.492E-15   0.132E-18 0.156E-17 0.134E-18   -.729E-13 -.847E-13 0.131E-12
 
 
 POSITION                                       TOTAL-FORCE (eV/Angst)
 -----------------------------------------------------------------------------------
      0.00000      0.00000      0.00000        -0.000000     -0.000000      0.000000
      2.73373      2.73373      0.00000         0.000000     -0.000000      0.000000
      2.73373      0.00000      2.73373        -0.000000     -0.000000     -0.000000
      0.00000      2.73373      2.73373         0.000000     -0.000000     -0.000000
      1.36686      1.36686      1.36686        -0.000000      0.000000     -0.000000
      4.10059      4.10059      4.10059        -0.000000     -0.000000      0.000000
      4.10059      1.36686      1.36686         0.000000      0.000000      0.000000
      1.36686      4.10059      4.10059        -0.000000     -0.000000     -0.000000
      4.10059      4.10059      1.36686        -0.000000     -0.000000     -0.000000
      1.36686      1.36686      4.10059         0.000000      0.000000      0.000000
      1.36686      4.10059      1.36686         0.000000      0.000000      0.000000
      4.10059      1.36686      4.10059        -0.000000     -0.000000     -0.000000
 -----------------------------------------------------------------------------------
    total drift:                                0.000000      0.000000      0.000000


--------------------------------------------------------------------------------------------------------



  FREE ENERGIE OF THE ION-ELECTRON SYSTEM (eV)
  ---------------------------------------------------
  free  energy   TOTEN  =      -104.92091999 eV

  energy  without entropy=     -104.92091999  energy(sigma->0) =     -104.92091999
 


--------------------------------------------------------------------------------------------------------


    POTLOK:  cpu time    0.4178: real time    0.4178


--------------------------------------------------------------------------------------------------------




--------------------------------------------------------------------------------------------------------


  
 reached required accuracy - stopping structural energy minimisation
 writing wavefunctions
     LOOP+:  cpu time  104.6102: real time  104.6205
    4ORBIT:  cpu time    0.0000: real time    0.0000

 total amount of memory used by VASP MPI-rank0    61449. kBytes
=======================================================================

   base      :      30000. kBytes
   nonl-proj :      20430. kBytes
   fftplans  :       3615. kBytes
   grid      :       1989. kBytes
   one-center:        147. kBytes
   wavefun   :       5268. kBytes
 
  
  
 General timing and accounting informations for this job:
 ========================================================
  
                  Total CPU time used (sec):      107.225
                            User time (sec):       95.726
                          System time (sec):       11.500
                         Elapsed time (sec):      107.652
  
                   Maximum memory used (kb):      210408.
                   Average memory used (kb):          N/A
  
                          Minor page faults:       240305
                          Major page faults:          183
                 Voluntary context switches:          858
