<?xml version="1.0" encoding="ISO-8859-1"?>
<modeling>
 <generator>
  <i name="program" type="string">vasp </i>
  <i name="version" type="string">6.2.1  </i>
  <i name="subversion" type="string">16May21 (build Feb 21 2024 21:23:56) complex                          parallel </i>
  <i name="platform" type="string">LinuxIFC </i>
  <i name="date" type="string">2025 04 06 </i>
  <i name="time" type="string">22:50:57 </i>
 </generator>
 <incar>
  <i type="int" name="ISTART">     1</i>
  <i type="string" name="PREC">Accurate   (Precision level: Normal or Accurate, set Accurate when perform structure lattice relaxation calculation)</i>
  <i type="logical" name="ADDGRID"> T  </i>
  <i type="int" name="ISPIN">     1</i>
  <i type="int" name="NELM">    90</i>
  <i type="int" name="NELMIN">     6</i>
  <i type="int" name="IBRION">     2</i>
  <i name="EDIFF">      0.00000001</i>
  <i name="EDIFFG">     -0.01000000</i>
  <i type="int" name="NSW">   100</i>
  <i type="int" name="ISIF">     2</i>
  <i type="int" name="ISYM">     2</i>
  <i name="ENCUT">    520.00000000</i>
  <v name="MAGMOM">      1.00000000      1.00000000      1.00000000      1.00000000      0.60000000      0.60000000      0.60000000      0.60000000      0.60000000      0.60000000      0.60000000      0.60000000</v>
  <i type="logical" name="LREAL"> F  </i>
  <i type="int" name="ISMEAR">     0</i>
  <i name="SIGMA">      0.05000000</i>
  <i type="logical" name="LWAVE"> T  </i>
  <i type="logical" name="LCHARG"> T  </i>
  <i type="logical" name="LASPH"> T  </i>
 </incar>
 <primitive_cell>
  <structure name="primitive_cell" >
   <crystal>
    <varray name="basis" >
     <v>       2.73372518      -2.73372518       0.00000000 </v>
     <v>       2.73372518       0.00000000       2.73372518 </v>
     <v>       0.00000000      -2.73372518       2.73372518 </v>
    </varray>
    <i name="volume">     40.85964155 </i>
    <varray name="rec_basis" >
     <v>       0.18290061      -0.18290061      -0.18290061 </v>
     <v>       0.18290061       0.18290061       0.18290061 </v>
     <v>      -0.18290061      -0.18290061       0.18290061 </v>
    </varray>
   </crystal>
   <varray name="positions" >
    <v>       0.00000000       0.00000000       0.00000000 </v>
    <v>       0.75000000       0.75000000       0.75000000 </v>
    <v>       0.25000000       0.25000000       0.25000000 </v>
   </varray>
  </structure>
  <varray name="primitive_index" >
   <v type="int" >        1 </v>
   <v type="int" >        5 </v>
   <v type="int" >        6 </v>
  </varray>
 </primitive_cell>
 <kpoints>
  <generation param="Monkhorst-Pack">
   <v type="int" name="divisions">       9        9        9 </v>
   <v name="usershift">      0.00000000       0.00000000       0.00000000 </v>
   <v name="genvec1">      0.11111111       0.00000000       0.00000000 </v>
   <v name="genvec2">      0.00000000       0.11111111       0.00000000 </v>
   <v name="genvec3">      0.00000000       0.00000000       0.11111111 </v>
   <v name="shift">      0.00000000       0.00000000       0.00000000 </v>
  </generation>
  <varray name="kpointlist" >
   <v>       0.00000000       0.00000000       0.00000000 </v>
   <v>       0.11111111       0.00000000       0.00000000 </v>
   <v>       0.22222222       0.00000000       0.00000000 </v>
   <v>       0.33333333       0.00000000       0.00000000 </v>
   <v>       0.44444444       0.00000000       0.00000000 </v>
   <v>       0.11111111       0.11111111       0.00000000 </v>
   <v>       0.22222222       0.11111111       0.00000000 </v>
   <v>       0.33333333       0.11111111       0.00000000 </v>
   <v>       0.44444444       0.11111111       0.00000000 </v>
   <v>       0.22222222       0.22222222       0.00000000 </v>
   <v>       0.33333333       0.22222222       0.00000000 </v>
   <v>       0.44444444       0.22222222       0.00000000 </v>
   <v>       0.33333333       0.33333333       0.00000000 </v>
   <v>       0.44444444       0.33333333       0.00000000 </v>
   <v>       0.44444444       0.44444444       0.00000000 </v>
   <v>       0.11111111       0.11111111       0.11111111 </v>
   <v>       0.22222222       0.11111111       0.11111111 </v>
   <v>       0.33333333       0.11111111       0.11111111 </v>
   <v>       0.44444444       0.11111111       0.11111111 </v>
   <v>       0.22222222       0.22222222       0.11111111 </v>
   <v>       0.33333333       0.22222222       0.11111111 </v>
   <v>       0.44444444       0.22222222       0.11111111 </v>
   <v>       0.33333333       0.33333333       0.11111111 </v>
   <v>       0.44444444       0.33333333       0.11111111 </v>
   <v>       0.44444444       0.44444444       0.11111111 </v>
   <v>       0.22222222       0.22222222       0.22222222 </v>
   <v>       0.33333333       0.22222222       0.22222222 </v>
   <v>       0.44444444       0.22222222       0.22222222 </v>
   <v>       0.33333333       0.33333333       0.22222222 </v>
   <v>       0.44444444       0.33333333       0.22222222 </v>
   <v>       0.44444444       0.44444444       0.22222222 </v>
   <v>       0.33333333       0.33333333       0.33333333 </v>
   <v>       0.44444444       0.33333333       0.33333333 </v>
   <v>       0.44444444       0.44444444       0.33333333 </v>
   <v>       0.44444444       0.44444444       0.44444444 </v>
  </varray>
  <varray name="weights" >
   <v>       0.00137174 </v>
   <v>       0.00823045 </v>
   <v>       0.00823045 </v>
   <v>       0.00823045 </v>
   <v>       0.00823045 </v>
   <v>       0.01646091 </v>
   <v>       0.03292181 </v>
   <v>       0.03292181 </v>
   <v>       0.03292181 </v>
   <v>       0.01646091 </v>
   <v>       0.03292181 </v>
   <v>       0.03292181 </v>
   <v>       0.01646091 </v>
   <v>       0.03292181 </v>
   <v>       0.01646091 </v>
   <v>       0.01097394 </v>
   <v>       0.03292181 </v>
   <v>       0.03292181 </v>
   <v>       0.03292181 </v>
   <v>       0.03292181 </v>
   <v>       0.06584362 </v>
   <v>       0.06584362 </v>
   <v>       0.03292181 </v>
   <v>       0.06584362 </v>
   <v>       0.03292181 </v>
   <v>       0.01097394 </v>
   <v>       0.03292181 </v>
   <v>       0.03292181 </v>
   <v>       0.03292181 </v>
   <v>       0.06584362 </v>
   <v>       0.03292181 </v>
   <v>       0.01097394 </v>
   <v>       0.03292181 </v>
   <v>       0.03292181 </v>
   <v>       0.01097394 </v>
  </varray>
 </kpoints>
 <parameters>
  <separator name="general" >
   <i type="string" name="SYSTEM">unknown system</i>
   <i type="logical" name="LCOMPAT"> F  </i>
  </separator>
  <separator name="electronic" >
   <i type="string" name="PREC">accura</i>
   <i name="ENMAX">    520.00000000</i>
   <i name="ENAUG">    605.39200000</i>
   <i name="EDIFF">      0.00000001</i>
   <i type="int" name="IALGO">    38</i>
   <i type="int" name="IWAVPR">    11</i>
   <i type="int" name="NBANDS">    64</i>
   <i type="int" name="NBANDSLOW">    -1</i>
   <i type="int" name="NBANDSHIGH">    -1</i>
   <i name="NELECT">     96.00000000</i>
   <i type="int" name="TURBO">     0</i>
   <i type="int" name="IRESTART">     0</i>
   <i type="int" name="NREBOOT">     0</i>
   <i type="int" name="NMIN">     0</i>
   <i name="EREF">      0.00000000</i>
   <separator name="electronic smearing" >
    <i type="int" name="ISMEAR">     0</i>
    <i name="SIGMA">      0.05000000</i>
    <i name="KSPACING">      0.50000000</i>
    <i type="logical" name="KGAMMA"> T  </i>
    <i type="logical" name="KBLOWUP"> T  </i>
   </separator>
   <separator name="electronic projectors" >
    <i type="logical" name="LREAL"> F  </i>
    <v name="ROPT">      0.00000000      0.00000000</v>
    <i type="int" name="LMAXPAW">  -100</i>
    <i type="int" name="LMAXMIX">     2</i>
    <i type="logical" name="NLSPLINE"> F  </i>
   </separator>
   <separator name="electronic startup" >
    <i type="int" name="ISTART">     0</i>
    <i type="int" name="ICHARG">     2</i>
    <i type="int" name="INIWAV">     1</i>
   </separator>
   <separator name="electronic spin" >
    <i type="int" name="ISPIN">     1</i>
    <i type="logical" name="LNONCOLLINEAR"> F  </i>
    <v name="MAGMOM">      1.00000000      1.00000000      1.00000000      1.00000000      0.60000000      0.60000000      0.60000000      0.60000000      0.60000000      0.60000000      0.60000000      0.60000000</v>
    <i name="NUPDOWN">     -1.00000000</i>
    <i type="logical" name="LSORBIT"> F  </i>
    <v name="SAXIS">      0.00000000      0.00000000      1.00000000</v>
    <i type="logical" name="LSPIRAL"> F  </i>
    <v name="QSPIRAL">      0.00000000      0.00000000      0.00000000</v>
    <i type="logical" name="LZEROZ"> F  </i>
   </separator>
   <separator name="electronic exchange-correlation" >
    <i type="logical" name="LASPH"> T  </i>
    <i type="logical" name="LMETAGGA"> F  </i>
   </separator>
   <separator name="electronic convergence" >
    <i type="int" name="NELM">    90</i>
    <i type="int" name="NELMDL">     0</i>
    <i type="int" name="NELMIN">     6</i>
    <i name="ENINI">    520.00000000</i>
    <separator name="electronic convergence detail" >
     <i type="logical" name="LDIAG"> T  </i>
     <i type="logical" name="LSUBROT"> F  </i>
     <i name="WEIMIN">      0.00100000</i>
     <i name="EBREAK">      0.00000000</i>
     <i name="DEPER">      0.30000000</i>
     <i type="int" name="NRMM">     4</i>
     <i name="TIME">      0.40000000</i>
    </separator>
   </separator>
   <separator name="electronic mixer" >
    <i name="AMIX">      0.40000000</i>
    <i name="BMIX">      1.00000000</i>
    <i name="AMIN">      0.10000000</i>
    <i name="AMIX_MAG">      1.60000000</i>
    <i name="BMIX_MAG">      1.00000000</i>
    <separator name="electronic mixer details" >
     <i type="int" name="IMIX">     4</i>
     <i type="logical" name="MIXFIRST"> F  </i>
     <i type="int" name="MAXMIX">   -45</i>
     <i name="WC">    100.00000000</i>
     <i type="int" name="INIMIX">     1</i>
     <i type="int" name="MIXPRE">     1</i>
     <i type="int" name="MREMOVE">     5</i>
    </separator>
   </separator>
   <separator name="electronic dipolcorrection" >
    <i type="logical" name="LDIPOL"> F  </i>
    <i type="logical" name="LMONO"> F  </i>
    <i type="int" name="IDIPOL">     0</i>
    <i name="EPSILON">      1.00000000</i>
    <v name="DIPOL">   -100.00000000   -100.00000000   -100.00000000</v>
    <i name="EFIELD">      0.00000000</i>
   </separator>
  </separator>
  <separator name="grids" >
   <i type="int" name="NGX">    42</i>
   <i type="int" name="NGY">    42</i>
   <i type="int" name="NGZ">    42</i>
   <i type="int" name="NGXF">    84</i>
   <i type="int" name="NGYF">    84</i>
   <i type="int" name="NGZF">    84</i>
   <i type="logical" name="ADDGRID"> T  </i>
  </separator>
  <separator name="ionic" >
   <i type="int" name="NSW">   100</i>
   <i type="int" name="IBRION">     2</i>
   <i type="int" name="MDALGO">     0</i>
   <i type="int" name="ISIF">     2</i>
   <i name="PSTRESS">      0.00000000</i>
   <i name="EDIFFG">     -0.01000000</i>
   <i type="int" name="NFREE">     1</i>
   <i name="POTIM">      0.50000000</i>
   <i name="SMASS">     -3.00000000</i>
   <i name="SCALEE">      1.00000000</i>
  </separator>
  <separator name="ionic md" >
   <i name="TEBEG">      0.00010000</i>
   <i name="TEEND">      0.00010000</i>
   <i type="int" name="NBLOCK">     1</i>
   <i type="int" name="KBLOCK">   100</i>
   <i type="int" name="NPACO">   256</i>
   <i name="APACO">     16.00000000</i>
  </separator>
  <separator name="symmetry" >
   <i type="int" name="ISYM">     2</i>
   <i name="SYMPREC">      0.00001000</i>
  </separator>
  <separator name="dos" >
   <i type="int" name="LORBIT">     0</i>
   <v name="RWIGS">     -1.00000000     -1.00000000</v>
   <i type="int" name="NEDOS">   301</i>
   <i name="EMIN">     10.00000000</i>
   <i name="EMAX">    -10.00000000</i>
   <i name="EFERMI">      0.00000000</i>
  </separator>
  <separator name="writing" >
   <i type="int" name="NWRITE">     2</i>
   <i type="logical" name="LWAVE"> T  </i>
   <i type="logical" name="LDOWNSAMPLE"> F  </i>
   <i type="logical" name="LCHARG"> T  </i>
   <i type="logical" name="LPARD"> F  </i>
   <i type="logical" name="LVTOT"> F  </i>
   <i type="logical" name="LVHAR"> F  </i>
   <i type="logical" name="LELF"> F  </i>
   <i type="logical" name="LOPTICS"> F  </i>
   <v name="STM">      0.00000000      0.00000000      0.00000000      0.00000000      0.00000000      0.00000000      0.00000000</v>
  </separator>
  <separator name="performance" >
   <i type="int" name="NPAR">     8</i>
   <i type="int" name="NSIM">     4</i>
   <i type="int" name="NBLK">    -1</i>
   <i type="logical" name="LPLANE"> T  </i>
   <i type="logical" name="LSCALAPACK"> T  </i>
   <i type="logical" name="LSCAAWARE"> F  </i>
   <i type="logical" name="LSCALU"> F  </i>
   <i type="logical" name="LASYNC"> F  </i>
   <i type="logical" name="LORBITALREAL"> F  </i>
  </separator>
  <separator name="miscellaneous" >
   <i type="int" name="IDIOT">     3</i>
   <i type="int" name="PHON_NSTRUCT">    -1</i>
   <i type="logical" name="LMUSIC"> F  </i>
   <v name="POMASS">    140.11500000     16.00000000</v>
   <v name="DARWINR">      0.00000000      0.00000000</v>
   <v name="DARWINV">      1.00000000      1.00000000</v>
   <i type="logical" name="LCORR"> T  </i>
  </separator>
  <i type="logical" name="GGA_COMPAT"> T  </i>
  <i type="logical" name="LBERRY"> F  </i>
  <i type="int" name="ICORELEVEL">     0</i>
  <i type="logical" name="LDAU"> F  </i>
  <i type="int" name="I_CONSTRAINED_M">     0</i>
  <separator name="electronic exchange-correlation" >
   <i type="string" name="GGA">--</i>
   <i type="int" name="VOSKOWN">     0</i>
   <i type="logical" name="LHFCALC"> F  </i>
   <i type="string" name="PRECFOCK"></i>
   <i type="logical" name="LSYMGRAD"> F  </i>
   <i type="logical" name="LHFONE"> F  </i>
   <i type="logical" name="LRHFCALC"> F  </i>
   <i type="logical" name="LTHOMAS"> F  </i>
   <i type="logical" name="LMODELHF"> F  </i>
   <i type="logical" name="LFOCKACE"> F  </i>
   <i name="ENCUT4O">     -1.00000000</i>
   <i type="int" name="EXXOEP">     0</i>
   <i type="int" name="FOURORBIT">     0</i>
   <i name="AEXX">      0.00000000</i>
   <i name="HFALPHA">      0.00000000</i>
   <i name="MCALPHA">      0.00000000</i>
   <i name="ALDAX">      1.00000000</i>
   <i name="AGGAX">      1.00000000</i>
   <i name="ALDAC">      1.00000000</i>
   <i name="AGGAC">      1.00000000</i>
   <i type="int" name="NKREDX">     1</i>
   <i type="int" name="NKREDY">     1</i>
   <i type="int" name="NKREDZ">     1</i>
   <i type="logical" name="SHIFTRED"> F  </i>
   <i type="logical" name="ODDONLY"> F  </i>
   <i type="logical" name="EVENONLY"> F  </i>
   <i type="int" name="LMAXFOCK">     0</i>
   <i type="int" name="NMAXFOCKAE">     0</i>
   <i type="logical" name="LFOCKAEDFT"> F  </i>
   <i name="HFSCREEN">      0.00000000</i>
   <i name="HFSCREENC">      0.00000000</i>
   <i type="int" name="NBANDSGWLOW">     0</i>
  </separator>
  <separator name="vdW DFT" >
   <i type="logical" name="LUSE_VDW"> F  </i>
   <i name="Zab_VDW">     -0.84910000</i>
   <i name="PARAM1">      0.12340000</i>
   <i name="PARAM2">      1.00000000</i>
   <i name="PARAM3">      0.00000000</i>
  </separator>
  <separator name="model GW" >
   <i type="int" name="MODEL_GW">     0</i>
   <i name="MODEL_EPS0">      8.17192831</i>
   <i name="MODEL_ALPHA">      1.00000000</i>
  </separator>
  <separator name="linear response parameters" >
   <i type="logical" name="LEPSILON"> F  </i>
   <i type="logical" name="LRPA"> F  </i>
   <i type="logical" name="LNABLA"> F  </i>
   <i type="logical" name="LVEL"> F  </i>
   <i type="int" name="KINTER">     0</i>
   <i name="CSHIFT">      0.10000000</i>
   <i name="OMEGAMAX">     -1.00000000</i>
   <i name="DEG_THRESHOLD">      0.00200000</i>
   <i name="RTIME">     -0.10000000</i>
   <i name="WPLASMAI">      0.00000000</i>
   <v name="DFIELD">      0.00000000      0.00000000      0.00000000</v>
   <v name="WPLASMA">      0.00000000      0.00000000      0.00000000      0.00000000      0.00000000      0.00000000      0.00000000      0.00000000      0.00000000</v>
  </separator>
  <separator name="orbital magnetization" >
   <i type="logical" name="NUCIND"> F  </i>
   <v name="MAGPOS">      0.00000000      0.00000000      0.00000000</v>
   <i type="logical" name="LNICSALL"> T  </i>
   <i type="logical" name="ORBITALMAG"> F  </i>
   <i type="logical" name="LMAGBLOCH"> F  </i>
   <i type="logical" name="LCHIMAG"> F  </i>
   <i type="logical" name="LGAUGE"> T  </i>
   <i type="int" name="MAGATOM">     0</i>
   <v name="MAGDIPOL">      0.00000000      0.00000000      0.00000000</v>
   <v name="AVECCONST">      0.00000000      0.00000000      0.00000000</v>
  </separator>
  <separator name="response functions" >
   <i type="logical" name="LFINITE_TEMPERATURE"> F  </i>
   <i type="logical" name="LADDER"> F  </i>
   <i type="logical" name="LRPAFORCE"> F  </i>
   <i type="logical" name="LFXC"> F  </i>
   <i type="logical" name="LHARTREE"> T  </i>
   <i type="int" name="IBSE">     0</i>
   <v type="int" name="KPOINT">    -1     0     0     0</v>
   <i type="logical" name="LTCTC"> F  </i>
   <i type="logical" name="LTCTE"> F  </i>
   <i type="logical" name="LTETE"> F  </i>
   <i type="logical" name="LTRIPLET"> F  </i>
   <i type="logical" name="LFXCEPS"> F  </i>
   <i type="logical" name="LFXHEG"> F  </i>
   <i type="int" name="NATURALO">     2</i>
   <i type="logical" name="LHOLEGF"> F  </i>
   <i type="logical" name="L2ORDER"> F  </i>
   <i type="logical" name="LDMP1"> F  </i>
   <i type="logical" name="LMP2LT"> F  </i>
   <i type="logical" name="LSMP2LT"> F  </i>
   <i type="logical" name="LGWLF"> F  </i>
   <i name="ENCUTGW">     -2.00000000</i>
   <i name="ENCUTGWSOFT">     -2.00000000</i>
   <i name="ENCUTLF">     -1.00000000</i>
   <i type="logical" name="LESF_SPLINES"> F  </i>
   <i type="int" name="LMAXMP2">    -1</i>
   <i name="SCISSOR">      0.00000000</i>
   <i type="int" name="NOMEGA">     0</i>
   <i type="int" name="NOMEGAR">     0</i>
   <i type="int" name="NBANDSGW">    -1</i>
   <i type="int" name="NBANDSO">    -1</i>
   <i type="int" name="NBANDSV">    -1</i>
   <i type="int" name="NELM">    90</i>
   <i type="int" name="NELMHF">     1</i>
   <i type="int" name="DIM">     3</i>
   <i type="int" name="IESPILON">     4</i>
   <i type="int" name="ANTIRES">     0</i>
   <i name="OMEGAMAX">    -30.00000000</i>
   <i name="OMEGAMIN">    -30.00000000</i>
   <i name="OMEGATL">   -200.00000000</i>
   <i type="int" name="OMEGAGRID">     0</i>
   <i name="CSHIFT">     -0.10000000</i>
   <i type="logical" name="LSELFENERGY"> F  </i>
   <i type="logical" name="LSPECTRAL"> F  </i>
   <i type="logical" name="LSPECTRALGW"> F  </i>
   <i type="logical" name="LSINGLES"> F  </i>
   <i type="logical" name="LFERMIGW"> F  </i>
   <i type="logical" name="ODDONLYGW"> F  </i>
   <i type="logical" name="EVENONLYGW"> F  </i>
   <i type="int" name="NKREDLFX">     1</i>
   <i type="int" name="NKREDLFY">     1</i>
   <i type="int" name="NKREDLFZ">     1</i>
   <i type="int" name="MAXMEM">  2800</i>
   <i type="int" name="TELESCOPE">     0</i>
   <i type="int" name="NTAUPAR">    -1</i>
   <i type="int" name="NOMEGAPAR">    -1</i>
   <i name="DAMP_NEWTON">      0.80000001</i>
   <i name="LAMBDA">      1.00000000</i>
  </separator>
  <separator name="External order field" >
   <i name="OFIELD_KAPPA">      0.00000000</i>
   <v name="OFIELD_K">      0.00000000      0.00000000      0.00000000</v>
   <i name="OFIELD_Q6_NEAR">      0.00000000</i>
   <i name="OFIELD_Q6_FAR">      0.00000000</i>
   <i name="OFIELD_A">      0.00000000</i>
  </separator>
 </parameters>
 <atominfo>
  <atoms>      12 </atoms>
  <types>       2 </types>
  <array name="atoms" >
   <dimension dim="1">ion</dimension>
   <field type="string">element</field>
   <field type="int">atomtype</field>
   <set>
    <rc><c>Ce</c><c>   1</c></rc>
    <rc><c>Ce</c><c>   1</c></rc>
    <rc><c>Ce</c><c>   1</c></rc>
    <rc><c>Ce</c><c>   1</c></rc>
    <rc><c>O </c><c>   2</c></rc>
    <rc><c>O </c><c>   2</c></rc>
    <rc><c>O </c><c>   2</c></rc>
    <rc><c>O </c><c>   2</c></rc>
    <rc><c>O </c><c>   2</c></rc>
    <rc><c>O </c><c>   2</c></rc>
    <rc><c>O </c><c>   2</c></rc>
    <rc><c>O </c><c>   2</c></rc>
   </set>
  </array>
  <array name="atomtypes" >
   <dimension dim="1">type</dimension>
   <field type="int">atomspertype</field>
   <field type="string">element</field>
   <field>mass</field>
   <field>valence</field>
   <field type="string">pseudopotential</field>
   <set>
    <rc><c>   4</c><c>Ce</c><c>    140.11500000</c><c>     12.00000000</c><c>  PAW_PBE Ce 23Dec2003                  </c></rc>
    <rc><c>   8</c><c>O </c><c>     16.00000000</c><c>      6.00000000</c><c>  PAW_PBE O 08Apr2002                   </c></rc>
   </set>
  </array>
 </atominfo>
 <structure name="initialpos" >
  <crystal>
   <varray name="basis" >
    <v>       5.46745035       0.00000000       0.00000000 </v>
    <v>       0.00000000       5.46745035       0.00000000 </v>
    <v>       0.00000000       0.00000000       5.46745035 </v>
   </varray>
   <i name="volume">    163.43856619 </i>
   <varray name="rec_basis" >
    <v>       0.18290061       0.00000000       0.00000000 </v>
    <v>       0.00000000       0.18290061       0.00000000 </v>
    <v>       0.00000000       0.00000000       0.18290061 </v>
   </varray>
  </crystal>
  <varray name="positions" >
   <v>       0.00000000       0.00000000       0.00000000 </v>
   <v>       0.50000000       0.50000000       0.00000000 </v>
   <v>       0.50000000       0.00000000       0.50000000 </v>
   <v>       0.00000000       0.50000000       0.50000000 </v>
   <v>       0.25000000       0.25000000       0.25000000 </v>
   <v>       0.75000000       0.75000000       0.75000000 </v>
   <v>       0.75000000       0.25000000       0.25000000 </v>
   <v>       0.25000000       0.75000000       0.75000000 </v>
   <v>       0.75000000       0.75000000       0.25000000 </v>
   <v>       0.25000000       0.25000000       0.75000000 </v>
   <v>       0.25000000       0.75000000       0.25000000 </v>
   <v>       0.75000000       0.25000000       0.75000000 </v>
  </varray>
 </structure>
 <calculation>
  <scstep>
   <time name="dav">    1.95    1.95</time>
   <time name="total">    2.39    2.39</time>
   <energy>
    <i name="alphaZ">    520.90633069 </i>
    <i name="ewald">  -6846.37346550 </i>
    <i name="hartreedc">  -1264.15690154 </i>
    <i name="XCdc">    245.22650637 </i>
    <i name="pawpsdc">   6175.75607900 </i>
    <i name="pawaedc">  -6093.16272582 </i>
    <i name="eentropy">     -0.00612786 </i>
    <i name="bandstr">    835.88527166 </i>
    <i name="atom">   7711.15510957 </i>
    <i name="e_fr_energy">   1285.23007658 </i>
    <i name="e_wo_entrp">   1285.23620444 </i>
    <i name="e_0_energy">   1285.23314051 </i>
   </energy>
  </scstep>
  <scstep>
   <time name="dav">    2.02    2.02</time>
   <time name="total">    2.02    2.02</time>
   <energy>
    <i name="e_fr_energy">    319.79639716 </i>
    <i name="e_wo_entrp">    319.81502395 </i>
    <i name="e_0_energy">    319.80571056 </i>
   </energy>
  </scstep>
  <scstep>
   <time name="dav">    2.29    2.29</time>
   <time name="total">    2.29    2.29</time>
   <energy>
    <i name="e_fr_energy">    -62.64013394 </i>
    <i name="e_wo_entrp">    -62.63606154 </i>
    <i name="e_0_energy">    -62.63809774 </i>
   </energy>
  </scstep>
  <scstep>
   <time name="dav">    2.68    2.68</time>
   <time name="total">    2.68    2.68</time>
   <energy>
    <i name="e_fr_energy">   -124.37057869 </i>
    <i name="e_wo_entrp">   -124.37057869 </i>
    <i name="e_0_energy">   -124.37057869 </i>
   </energy>
  </scstep>
  <scstep>
   <time name="dav">    2.90    2.90</time>
   <time name="total">    3.13    3.13</time>
   <energy>
    <i name="e_fr_energy">   -126.98960301 </i>
    <i name="e_wo_entrp">   -126.98960301 </i>
    <i name="e_0_energy">   -126.98960301 </i>
   </energy>
  </scstep>
  <scstep>
   <time name="dav">    2.33    2.33</time>
   <time name="total">    3.00    3.00</time>
   <energy>
    <i name="e_fr_energy">   -118.70148769 </i>
    <i name="e_wo_entrp">   -118.64579321 </i>
    <i name="e_0_energy">   -118.67364045 </i>
   </energy>
  </scstep>
  <scstep>
   <time name="dav">    2.56    2.56</time>
   <time name="total">    3.22    3.22</time>
   <energy>
    <i name="e_fr_energy">   -114.39301124 </i>
    <i name="e_wo_entrp">   -114.39301124 </i>
    <i name="e_0_energy">   -114.39301124 </i>
   </energy>
  </scstep>
  <scstep>
   <time name="dav">    2.58    2.58</time>
   <time name="total">    3.23    3.23</time>
   <energy>
    <i name="e_fr_energy">   -115.85967079 </i>
    <i name="e_wo_entrp">   -115.85967079 </i>
    <i name="e_0_energy">   -115.85967079 </i>
   </energy>
  </scstep>
  <scstep>
   <time name="dav">    2.51    2.51</time>
   <time name="total">    3.16    3.16</time>
   <energy>
    <i name="e_fr_energy">   -107.73632360 </i>
    <i name="e_wo_entrp">   -107.73632360 </i>
    <i name="e_0_energy">   -107.73632360 </i>
   </energy>
  </scstep>
  <scstep>
   <time name="dav">    2.74    2.74</time>
   <time name="total">    3.40    3.40</time>
   <energy>
    <i name="e_fr_energy">   -106.12046530 </i>
    <i name="e_wo_entrp">   -106.12046530 </i>
    <i name="e_0_energy">   -106.12046530 </i>
   </energy>
  </scstep>
  <scstep>
   <time name="dav">    2.99    2.99</time>
   <time name="total">    3.65    3.65</time>
   <energy>
    <i name="e_fr_energy">   -105.78122379 </i>
    <i name="e_wo_entrp">   -105.78122379 </i>
    <i name="e_0_energy">   -105.78122379 </i>
   </energy>
  </scstep>
  <scstep>
   <time name="dav">    2.81    2.81</time>
   <time name="total">    3.46    3.46</time>
   <energy>
    <i name="e_fr_energy">   -105.63434096 </i>
    <i name="e_wo_entrp">   -105.63434096 </i>
    <i name="e_0_energy">   -105.63434096 </i>
   </energy>
  </scstep>
  <scstep>
   <time name="dav">    2.77    2.77</time>
   <time name="total">    3.42    3.42</time>
   <energy>
    <i name="e_fr_energy">   -105.74703135 </i>
    <i name="e_wo_entrp">   -105.74703135 </i>
    <i name="e_0_energy">   -105.74703135 </i>
   </energy>
  </scstep>
  <scstep>
   <time name="dav">    2.13    2.13</time>
   <time name="total">    2.78    2.78</time>
   <energy>
    <i name="e_fr_energy">   -104.96428421 </i>
    <i name="e_wo_entrp">   -104.96428421 </i>
    <i name="e_0_energy">   -104.96428421 </i>
   </energy>
  </scstep>
  <scstep>
   <time name="dav">    2.67    2.67</time>
   <time name="total">    3.32    3.32</time>
   <energy>
    <i name="e_fr_energy">   -104.95812015 </i>
    <i name="e_wo_entrp">   -104.95812015 </i>
    <i name="e_0_energy">   -104.95812015 </i>
   </energy>
  </scstep>
  <scstep>
   <time name="dav">    2.90    2.90</time>
   <time name="total">    3.56    3.56</time>
   <energy>
    <i name="e_fr_energy">   -104.97319060 </i>
    <i name="e_wo_entrp">   -104.97319060 </i>
    <i name="e_0_energy">   -104.97319060 </i>
   </energy>
  </scstep>
  <scstep>
   <time name="dav">    2.27    2.27</time>
   <time name="total">    2.93    2.93</time>
   <energy>
    <i name="e_fr_energy">   -104.92359125 </i>
    <i name="e_wo_entrp">   -104.92359125 </i>
    <i name="e_0_energy">   -104.92359125 </i>
   </energy>
  </scstep>
  <scstep>
   <time name="dav">    2.49    2.49</time>
   <time name="total">    3.14    3.14</time>
   <energy>
    <i name="e_fr_energy">   -104.93503339 </i>
    <i name="e_wo_entrp">   -104.93503339 </i>
    <i name="e_0_energy">   -104.93503339 </i>
   </energy>
  </scstep>
  <scstep>
   <time name="dav">    2.55    2.55</time>
   <time name="total">    3.21    3.21</time>
   <energy>
    <i name="e_fr_energy">   -104.92815196 </i>
    <i name="e_wo_entrp">   -104.92815196 </i>
    <i name="e_0_energy">   -104.92815196 </i>
   </energy>
  </scstep>
  <scstep>
   <time name="dav">    2.34    2.34</time>
   <time name="total">    3.00    3.00</time>
   <energy>
    <i name="e_fr_energy">   -104.92115513 </i>
    <i name="e_wo_entrp">   -104.92115513 </i>
    <i name="e_0_energy">   -104.92115513 </i>
   </energy>
  </scstep>
  <scstep>
   <time name="dav">    2.54    2.54</time>
   <time name="total">    3.19    3.19</time>
   <energy>
    <i name="e_fr_energy">   -104.92089536 </i>
    <i name="e_wo_entrp">   -104.92089536 </i>
    <i name="e_0_energy">   -104.92089536 </i>
   </energy>
  </scstep>
  <scstep>
   <time name="dav">    2.79    2.79</time>
   <time name="total">    3.45    3.45</time>
   <energy>
    <i name="e_fr_energy">   -104.92094416 </i>
    <i name="e_wo_entrp">   -104.92094416 </i>
    <i name="e_0_energy">   -104.92094416 </i>
   </energy>
  </scstep>
  <scstep>
   <time name="dav">    2.78    2.78</time>
   <time name="total">    3.43    3.43</time>
   <energy>
    <i name="e_fr_energy">   -104.92093735 </i>
    <i name="e_wo_entrp">   -104.92093735 </i>
    <i name="e_0_energy">   -104.92093735 </i>
   </energy>
  </scstep>
  <scstep>
   <time name="dav">    2.96    2.96</time>
   <time name="total">    3.61    3.61</time>
   <energy>
    <i name="e_fr_energy">   -104.92093956 </i>
    <i name="e_wo_entrp">   -104.92093956 </i>
    <i name="e_0_energy">   -104.92093956 </i>
   </energy>
  </scstep>
  <scstep>
   <time name="dav">    2.34    2.34</time>
   <time name="total">    2.99    2.99</time>
   <energy>
    <i name="e_fr_energy">   -104.92092119 </i>
    <i name="e_wo_entrp">   -104.92092119 </i>
    <i name="e_0_energy">   -104.92092119 </i>
   </energy>
  </scstep>
  <scstep>
   <time name="dav">    2.60    2.60</time>
   <time name="total">    3.26    3.26</time>
   <energy>
    <i name="e_fr_energy">   -104.92092185 </i>
    <i name="e_wo_entrp">   -104.92092185 </i>
    <i name="e_0_energy">   -104.92092185 </i>
   </energy>
  </scstep>
  <scstep>
   <time name="dav">    2.36    2.36</time>
   <time name="total">    3.01    3.01</time>
   <energy>
    <i name="e_fr_energy">   -104.92091988 </i>
    <i name="e_wo_entrp">   -104.92091988 </i>
    <i name="e_0_energy">   -104.92091988 </i>
   </energy>
  </scstep>
  <scstep>
   <time name="dav">    2.92    2.92</time>
   <time name="total">    3.57    3.57</time>
   <energy>
    <i name="e_fr_energy">   -104.92092001 </i>
    <i name="e_wo_entrp">   -104.92092001 </i>
    <i name="e_0_energy">   -104.92092001 </i>
   </energy>
  </scstep>
  <scstep>
   <time name="dav">    2.37    2.37</time>
   <time name="total">    3.02    3.02</time>
   <energy>
    <i name="e_fr_energy">   -104.92092001 </i>
    <i name="e_wo_entrp">   -104.92092001 </i>
    <i name="e_0_energy">   -104.92092001 </i>
   </energy>
  </scstep>
  <scstep>
   <time name="dav">    1.61    1.61</time>
   <time name="total">    2.26    2.26</time>
   <energy>
    <i name="e_fr_energy">   -104.92091999 </i>
    <i name="e_wo_entrp">   -104.92091999 </i>
    <i name="e_0_energy">   -104.92091999 </i>
   </energy>
  </scstep>
  <scstep>
   <time name="dav">    1.53    1.53</time>
   <time name="total">    2.18    2.18</time>
   <energy>
    <i name="e_fr_energy">   -104.92092001 </i>
    <i name="e_wo_entrp">   -104.92092001 </i>
    <i name="e_0_energy">   -104.92092001 </i>
   </energy>
  </scstep>
  <scstep>
   <time name="dav">    1.47    1.47</time>
   <time name="total">    2.12    2.12</time>
   <energy>
    <i name="e_fr_energy">   -104.92091999 </i>
    <i name="e_wo_entrp">   -104.92091999 </i>
    <i name="e_0_energy">   -104.92091999 </i>
   </energy>
  </scstep>
  <scstep>
   <time name="dav">    1.46    1.46</time>
   <time name="total">    1.88    1.88</time>
   <energy>
    <i name="alphaZ">    520.90633069 </i>
    <i name="ewald">  -6846.37346550 </i>
    <i name="hartreedc">  -1369.54322409 </i>
    <i name="XCdc">    253.46915188 </i>
    <i name="pawpsdc">   7293.70257795 </i>
    <i name="pawaedc">  -7204.09963013 </i>
    <i name="eentropy">     -0.00000000 </i>
    <i name="bandstr">   -464.13777035 </i>
    <i name="atom">   7711.15510957 </i>
    <i name="e_fr_energy">   -104.92091999 </i>
    <i name="e_wo_entrp">   -104.92091999 </i>
    <i name="e_0_energy">   -104.92091999 </i>
   </energy>
  </scstep>
  <structure>
   <crystal>
    <varray name="basis" >
     <v>       5.46745035       0.00000000       0.00000000 </v>
     <v>       0.00000000       5.46745035       0.00000000 </v>
     <v>       0.00000000       0.00000000       5.46745035 </v>
    </varray>
    <i name="volume">    163.43856619 </i>
    <varray name="rec_basis" >
     <v>       0.18290061       0.00000000       0.00000000 </v>
     <v>       0.00000000       0.18290061       0.00000000 </v>
     <v>       0.00000000       0.00000000       0.18290061 </v>
    </varray>
   </crystal>
   <varray name="positions" >
    <v>       0.00000000       0.00000000       0.00000000 </v>
    <v>       0.50000000       0.50000000       0.00000000 </v>
    <v>       0.50000000       0.00000000       0.50000000 </v>
    <v>       0.00000000       0.50000000       0.50000000 </v>
    <v>       0.25000000       0.25000000       0.25000000 </v>
    <v>       0.75000000       0.75000000       0.75000000 </v>
    <v>       0.75000000       0.25000000       0.25000000 </v>
    <v>       0.25000000       0.75000000       0.75000000 </v>
    <v>       0.75000000       0.75000000       0.25000000 </v>
    <v>       0.25000000       0.25000000       0.75000000 </v>
    <v>       0.25000000       0.75000000       0.25000000 </v>
    <v>       0.75000000       0.25000000       0.75000000 </v>
   </varray>
  </structure>
  <varray name="forces" >
   <v>      -0.00000000      -0.00000000       0.00000000 </v>
   <v>       0.00000000      -0.00000000       0.00000000 </v>
   <v>      -0.00000000      -0.00000000      -0.00000000 </v>
   <v>       0.00000000      -0.00000000      -0.00000000 </v>
   <v>      -0.00000000       0.00000000      -0.00000000 </v>
   <v>      -0.00000000      -0.00000000       0.00000000 </v>
   <v>       0.00000000       0.00000000       0.00000000 </v>
   <v>      -0.00000000      -0.00000000      -0.00000000 </v>
   <v>      -0.00000000      -0.00000000      -0.00000000 </v>
   <v>       0.00000000       0.00000000       0.00000000 </v>
   <v>       0.00000000       0.00000000       0.00000000 </v>
   <v>      -0.00000000      -0.00000000      -0.00000000 </v>
  </varray>
  <varray name="stress" >
   <v>      -3.61303199      -0.00000000       0.00000000 </v>
   <v>      -0.00000000      -3.61303199      -0.00000000 </v>
   <v>       0.00000000      -0.00000000      -3.61303199 </v>
  </varray>
  <energy>
   <i name="e_fr_energy">   -104.92091999 </i>
   <i name="e_wo_entrp">   -104.92091999 </i>
   <i name="e_0_energy">   -104.92091999 </i>
  </energy>
  <time name="totalsc">  104.61  104.62</time>
  <eigenvalues>
   <array>
    <dimension dim="1">band</dimension>
    <dimension dim="2">kpoint</dimension>
    <dimension dim="3">spin</dimension>
    <field>eigene</field>
    <field>occ</field>
    <set>
     <set comment="spin 1">
      <set comment="kpoint 1">
       <r>  -27.4533    1.0000 </r>
       <r>  -27.2104    1.0000 </r>
       <r>  -27.2104    1.0000 </r>
       <r>  -27.2104    1.0000 </r>
       <r>  -13.5699    1.0000 </r>
       <r>  -13.5699    1.0000 </r>
       <r>  -13.5699    1.0000 </r>
       <r>  -11.2380    1.0000 </r>
       <r>  -11.0019    1.0000 </r>
       <r>  -11.0019    1.0000 </r>
       <r>  -11.0019    1.0000 </r>
       <r>  -10.2908    1.0000 </r>
       <r>  -10.1739    1.0000 </r>
       <r>  -10.1739    1.0000 </r>
       <r>  -10.1739    1.0000 </r>
       <r>  -10.1739    1.0000 </r>
       <r>  -10.1739    1.0000 </r>
       <r>  -10.1739    1.0000 </r>
       <r>   -9.6332    1.0000 </r>
       <r>   -9.6332    1.0000 </r>
       <r>   -9.6332    1.0000 </r>
       <r>   -6.6423    1.0000 </r>
       <r>   -6.6423    1.0000 </r>
       <r>   -6.6423    1.0000 </r>
       <r>    1.2409    1.0000 </r>
       <r>    1.2409    1.0000 </r>
       <r>    1.2409    1.0000 </r>
       <r>    1.3272    1.0000 </r>
       <r>    1.3272    1.0000 </r>
       <r>    1.3272    1.0000 </r>
       <r>    3.8277    1.0000 </r>
       <r>    3.8277    1.0000 </r>
       <r>    3.8277    1.0000 </r>
       <r>    3.8277    1.0000 </r>
       <r>    3.8277    1.0000 </r>
       <r>    3.8277    1.0000 </r>
       <r>    4.2917    1.0000 </r>
       <r>    4.2917    1.0000 </r>
       <r>    4.2917    1.0000 </r>
       <r>    4.2917    1.0000 </r>
       <r>    4.2917    1.0000 </r>
       <r>    4.2917    1.0000 </r>
       <r>    4.4486    1.0000 </r>
       <r>    4.4486    1.0000 </r>
       <r>    4.4486    1.0000 </r>
       <r>    4.4533    1.0000 </r>
       <r>    4.4533    1.0000 </r>
       <r>    4.4533    1.0000 </r>
       <r>    6.9220    0.0000 </r>
       <r>    6.9220    0.0000 </r>
       <r>    6.9220    0.0000 </r>
       <r>    7.0092    0.0000 </r>
       <r>    7.0092    0.0000 </r>
       <r>    7.0092    0.0000 </r>
       <r>    7.0092    0.0000 </r>
       <r>    7.0092    0.0000 </r>
       <r>    7.0092    0.0000 </r>
       <r>    7.1613    0.0000 </r>
       <r>    7.1613    0.0000 </r>
       <r>    7.1613    0.0000 </r>
       <r>    7.1863    0.0000 </r>
       <r>    7.1863    0.0000 </r>
       <r>    7.1863    0.0000 </r>
       <r>    7.4131    0.0000 </r>
      </set>
      <set comment="kpoint 2">
       <r>  -27.4465    1.0000 </r>
       <r>  -27.2180    1.0000 </r>
       <r>  -27.2104    1.0000 </r>
       <r>  -27.2104    1.0000 </r>
       <r>  -13.5302    1.0000 </r>
       <r>  -13.5302    1.0000 </r>
       <r>  -13.5266    1.0000 </r>
       <r>  -11.4054    1.0000 </r>
       <r>  -11.2869    1.0000 </r>
       <r>  -11.2869    1.0000 </r>
       <r>  -10.9827    1.0000 </r>
       <r>  -10.3150    1.0000 </r>
       <r>  -10.1767    1.0000 </r>
       <r>  -10.1767    1.0000 </r>
       <r>  -10.1588    1.0000 </r>
       <r>  -10.1588    1.0000 </r>
       <r>   -9.8611    1.0000 </r>
       <r>   -9.8611    1.0000 </r>
       <r>   -9.6509    1.0000 </r>
       <r>   -9.6509    1.0000 </r>
       <r>   -9.4500    1.0000 </r>
       <r>   -6.7124    1.0000 </r>
       <r>   -6.7124    1.0000 </r>
       <r>   -6.7105    1.0000 </r>
       <r>    1.3094    1.0000 </r>
       <r>    1.3094    1.0000 </r>
       <r>    1.3229    1.0000 </r>
       <r>    1.3750    1.0000 </r>
       <r>    1.3750    1.0000 </r>
       <r>    1.4111    1.0000 </r>
       <r>    3.5994    1.0000 </r>
       <r>    3.5994    1.0000 </r>
       <r>    3.7503    1.0000 </r>
       <r>    3.7503    1.0000 </r>
       <r>    3.8352    1.0000 </r>
       <r>    3.8352    1.0000 </r>
       <r>    4.2675    1.0000 </r>
       <r>    4.2675    1.0000 </r>
       <r>    4.2964    1.0000 </r>
       <r>    4.2964    1.0000 </r>
       <r>    4.3335    1.0000 </r>
       <r>    4.3434    1.0000 </r>
       <r>    4.4457    1.0000 </r>
       <r>    4.4457    1.0000 </r>
       <r>    4.4560    1.0000 </r>
       <r>    4.4560    1.0000 </r>
       <r>    4.4772    1.0000 </r>
       <r>    4.4772    1.0000 </r>
       <r>    6.9284    0.0000 </r>
       <r>    6.9443    0.0000 </r>
       <r>    6.9443    0.0000 </r>
       <r>    7.0029    0.0000 </r>
       <r>    7.0029    0.0000 </r>
       <r>    7.0125    0.0000 </r>
       <r>    7.0125    0.0000 </r>
       <r>    7.0266    0.0000 </r>
       <r>    7.0266    0.0000 </r>
       <r>    7.1607    0.0000 </r>
       <r>    7.1607    0.0000 </r>
       <r>    7.1678    0.0000 </r>
       <r>    7.1762    0.0000 </r>
       <r>    7.1884    0.0000 </r>
       <r>    7.1884    0.0000 </r>
       <r>    7.4189    0.0000 </r>
      </set>
      <set comment="kpoint 3">
       <r>  -27.4262    1.0000 </r>
       <r>  -27.2396    1.0000 </r>
       <r>  -27.2103    1.0000 </r>
       <r>  -27.2103    1.0000 </r>
       <r>  -13.4114    1.0000 </r>
       <r>  -13.4114    1.0000 </r>
       <r>  -13.3984    1.0000 </r>
       <r>  -11.7684    1.0000 </r>
       <r>  -11.7522    1.0000 </r>
       <r>  -11.7522    1.0000 </r>
       <r>  -10.9270    1.0000 </r>
       <r>  -10.3838    1.0000 </r>
       <r>  -10.1837    1.0000 </r>
       <r>  -10.1837    1.0000 </r>
       <r>  -10.1149    1.0000 </r>
       <r>  -10.1149    1.0000 </r>
       <r>   -9.7012    1.0000 </r>
       <r>   -9.7012    1.0000 </r>
       <r>   -9.3152    1.0000 </r>
       <r>   -9.3152    1.0000 </r>
       <r>   -9.0395    1.0000 </r>
       <r>   -6.9176    1.0000 </r>
       <r>   -6.9176    1.0000 </r>
       <r>   -6.9083    1.0000 </r>
       <r>    1.5066    1.0000 </r>
       <r>    1.5066    1.0000 </r>
       <r>    1.5154    1.0000 </r>
       <r>    1.5154    1.0000 </r>
       <r>    1.5617    1.0000 </r>
       <r>    1.6550    1.0000 </r>
       <r>    3.2068    1.0000 </r>
       <r>    3.2068    1.0000 </r>
       <r>    3.5296    1.0000 </r>
       <r>    3.5296    1.0000 </r>
       <r>    3.8585    1.0000 </r>
       <r>    3.8585    1.0000 </r>
       <r>    3.9985    1.0000 </r>
       <r>    4.0425    1.0000 </r>
       <r>    4.2034    1.0000 </r>
       <r>    4.2034    1.0000 </r>
       <r>    4.3092    1.0000 </r>
       <r>    4.3092    1.0000 </r>
       <r>    4.4373    1.0000 </r>
       <r>    4.4373    1.0000 </r>
       <r>    4.5435    1.0000 </r>
       <r>    4.5435    1.0000 </r>
       <r>    4.6588    1.0000 </r>
       <r>    4.6588    1.0000 </r>
       <r>    6.9472    0.0000 </r>
       <r>    6.9861    0.0000 </r>
       <r>    6.9861    0.0000 </r>
       <r>    6.9994    0.0000 </r>
       <r>    6.9994    0.0000 </r>
       <r>    7.0219    0.0000 </r>
       <r>    7.0219    0.0000 </r>
       <r>    7.0752    0.0000 </r>
       <r>    7.0752    0.0000 </r>
       <r>    7.1482    0.0000 </r>
       <r>    7.1632    0.0000 </r>
       <r>    7.1632    0.0000 </r>
       <r>    7.1880    0.0000 </r>
       <r>    7.1943    0.0000 </r>
       <r>    7.1943    0.0000 </r>
       <r>    7.4070    0.0000 </r>
      </set>
      <set comment="kpoint 4">
       <r>  -27.3944    1.0000 </r>
       <r>  -27.2726    1.0000 </r>
       <r>  -27.2101    1.0000 </r>
       <r>  -27.2101    1.0000 </r>
       <r>  -13.2154    1.0000 </r>
       <r>  -13.2154    1.0000 </r>
       <r>  -13.1899    1.0000 </r>
       <r>  -12.2034    1.0000 </r>
       <r>  -12.2034    1.0000 </r>
       <r>  -12.1756    1.0000 </r>
       <r>  -10.8393    1.0000 </r>
       <r>  -10.4856    1.0000 </r>
       <r>  -10.1916    1.0000 </r>
       <r>  -10.1916    1.0000 </r>
       <r>  -10.0466    1.0000 </r>
       <r>  -10.0466    1.0000 </r>
       <r>   -9.7768    1.0000 </r>
       <r>   -9.7768    1.0000 </r>
       <r>   -8.7393    1.0000 </r>
       <r>   -8.7393    1.0000 </r>
       <r>   -8.5565    1.0000 </r>
       <r>   -7.2452    1.0000 </r>
       <r>   -7.2452    1.0000 </r>
       <r>   -7.2172    1.0000 </r>
       <r>    1.7408    1.0000 </r>
       <r>    1.7408    1.0000 </r>
       <r>    1.8033    1.0000 </r>
       <r>    1.8033    1.0000 </r>
       <r>    1.9370    1.0000 </r>
       <r>    2.0371    1.0000 </r>
       <r>    2.7930    1.0000 </r>
       <r>    2.7930    1.0000 </r>
       <r>    3.2042    1.0000 </r>
       <r>    3.2042    1.0000 </r>
       <r>    3.5139    1.0000 </r>
       <r>    3.5921    1.0000 </r>
       <r>    3.8987    1.0000 </r>
       <r>    3.8987    1.0000 </r>
       <r>    4.1186    1.0000 </r>
       <r>    4.1186    1.0000 </r>
       <r>    4.3264    1.0000 </r>
       <r>    4.3264    1.0000 </r>
       <r>    4.4250    1.0000 </r>
       <r>    4.4250    1.0000 </r>
       <r>    4.6357    1.0000 </r>
       <r>    4.6357    1.0000 </r>
       <r>    4.7701    1.0000 </r>
       <r>    4.7701    1.0000 </r>
       <r>    6.9657    0.0000 </r>
       <r>    6.9657    0.0000 </r>
       <r>    6.9774    0.0000 </r>
       <r>    7.0357    0.0000 </r>
       <r>    7.0357    0.0000 </r>
       <r>    7.0496    0.0000 </r>
       <r>    7.0496    0.0000 </r>
       <r>    7.1078    0.0000 </r>
       <r>    7.1391    0.0000 </r>
       <r>    7.1391    0.0000 </r>
       <r>    7.1887    0.0000 </r>
       <r>    7.1887    0.0000 </r>
       <r>    7.2014    0.0000 </r>
       <r>    7.2014    0.0000 </r>
       <r>    7.2240    0.0000 </r>
       <r>    7.3548    0.0000 </r>
      </set>
      <set comment="kpoint 5">
       <r>  -27.3552    1.0000 </r>
       <r>  -27.3129    1.0000 </r>
       <r>  -27.2100    1.0000 </r>
       <r>  -27.2100    1.0000 </r>
       <r>  -12.9452    1.0000 </r>
       <r>  -12.9452    1.0000 </r>
       <r>  -12.9084    1.0000 </r>
       <r>  -12.6055    1.0000 </r>
       <r>  -12.6055    1.0000 </r>
       <r>  -12.5649    1.0000 </r>
       <r>  -10.7288    1.0000 </r>
       <r>  -10.6060    1.0000 </r>
       <r>  -10.1967    1.0000 </r>
       <r>  -10.1967    1.0000 </r>
       <r>   -9.9609    1.0000 </r>
       <r>   -9.9609    1.0000 </r>
       <r>   -9.8673    1.0000 </r>
       <r>   -9.8673    1.0000 </r>
       <r>   -8.1823    1.0000 </r>
       <r>   -8.1823    1.0000 </r>
       <r>   -8.0688    1.0000 </r>
       <r>   -7.6751    1.0000 </r>
       <r>   -7.6751    1.0000 </r>
       <r>   -7.6128    1.0000 </r>
       <r>    2.0393    1.0000 </r>
       <r>    2.0393    1.0000 </r>
       <r>    2.1167    1.0000 </r>
       <r>    2.1167    1.0000 </r>
       <r>    2.3960    1.0000 </r>
       <r>    2.3960    1.0000 </r>
       <r>    2.4178    1.0000 </r>
       <r>    2.5220    1.0000 </r>
       <r>    2.8710    1.0000 </r>
       <r>    2.8710    1.0000 </r>
       <r>    2.9623    1.0000 </r>
       <r>    3.0611    1.0000 </r>
       <r>    3.9569    1.0000 </r>
       <r>    3.9569    1.0000 </r>
       <r>    4.0322    1.0000 </r>
       <r>    4.0322    1.0000 </r>
       <r>    4.3407    1.0000 </r>
       <r>    4.3407    1.0000 </r>
       <r>    4.4140    1.0000 </r>
       <r>    4.4140    1.0000 </r>
       <r>    4.7274    1.0000 </r>
       <r>    4.7274    1.0000 </r>
       <r>    4.7843    1.0000 </r>
       <r>    4.7843    1.0000 </r>
       <r>    6.9518    0.0000 </r>
       <r>    6.9518    0.0000 </r>
       <r>    7.0167    0.0000 </r>
       <r>    7.0510    0.0000 </r>
       <r>    7.0510    0.0000 </r>
       <r>    7.0611    0.0000 </r>
       <r>    7.0611    0.0000 </r>
       <r>    7.0618    0.0000 </r>
       <r>    7.1871    0.0000 </r>
       <r>    7.1871    0.0000 </r>
       <r>    7.2036    0.0000 </r>
       <r>    7.2036    0.0000 </r>
       <r>    7.2536    0.0000 </r>
       <r>    7.2536    0.0000 </r>
       <r>    7.2797    0.0000 </r>
       <r>    7.3283    0.0000 </r>
      </set>
      <set comment="kpoint 6">
       <r>  -27.4397    1.0000 </r>
       <r>  -27.2177    1.0000 </r>
       <r>  -27.2177    1.0000 </r>
       <r>  -27.2106    1.0000 </r>
       <r>  -13.4906    1.0000 </r>
       <r>  -13.4892    1.0000 </r>
       <r>  -13.4892    1.0000 </r>
       <r>  -11.5410    1.0000 </r>
       <r>  -11.4756    1.0000 </r>
       <r>  -11.2640    1.0000 </r>
       <r>  -11.2640    1.0000 </r>
       <r>  -10.3572    1.0000 </r>
       <r>  -10.1606    1.0000 </r>
       <r>  -10.1606    1.0000 </r>
       <r>  -10.1523    1.0000 </r>
       <r>   -9.8511    1.0000 </r>
       <r>   -9.8511    1.0000 </r>
       <r>   -9.6729    1.0000 </r>
       <r>   -9.6476    1.0000 </r>
       <r>   -9.6433    1.0000 </r>
       <r>   -9.3245    1.0000 </r>
       <r>   -6.7795    1.0000 </r>
       <r>   -6.7781    1.0000 </r>
       <r>   -6.7781    1.0000 </r>
       <r>    1.3768    1.0000 </r>
       <r>    1.3897    1.0000 </r>
       <r>    1.3897    1.0000 </r>
       <r>    1.3943    1.0000 </r>
       <r>    1.4206    1.0000 </r>
       <r>    1.5186    1.0000 </r>
       <r>    3.5472    1.0000 </r>
       <r>    3.5472    1.0000 </r>
       <r>    3.6065    1.0000 </r>
       <r>    3.6065    1.0000 </r>
       <r>    3.7112    1.0000 </r>
       <r>    3.8088    1.0000 </r>
       <r>    4.1568    1.0000 </r>
       <r>    4.3237    1.0000 </r>
       <r>    4.3237    1.0000 </r>
       <r>    4.3360    1.0000 </r>
       <r>    4.3707    1.0000 </r>
       <r>    4.3839    1.0000 </r>
       <r>    4.4100    1.0000 </r>
       <r>    4.4100    1.0000 </r>
       <r>    4.4562    1.0000 </r>
       <r>    4.4823    1.0000 </r>
       <r>    4.4823    1.0000 </r>
       <r>    4.5012    1.0000 </r>
       <r>    6.9462    0.0000 </r>
       <r>    6.9462    0.0000 </r>
       <r>    6.9648    0.0000 </r>
       <r>    6.9958    0.0000 </r>
       <r>    7.0170    0.0000 </r>
       <r>    7.0228    0.0000 </r>
       <r>    7.0228    0.0000 </r>
       <r>    7.0294    0.0000 </r>
       <r>    7.0294    0.0000 </r>
       <r>    7.1601    0.0000 </r>
       <r>    7.1687    0.0000 </r>
       <r>    7.1687    0.0000 </r>
       <r>    7.1743    0.0000 </r>
       <r>    7.1817    0.0000 </r>
       <r>    7.1905    0.0000 </r>
       <r>    7.4342    0.0000 </r>
      </set>
      <set comment="kpoint 7">
       <r>  -27.4198    1.0000 </r>
       <r>  -27.2387    1.0000 </r>
       <r>  -27.2169    1.0000 </r>
       <r>  -27.2112    1.0000 </r>
       <r>  -13.3774    1.0000 </r>
       <r>  -13.3725    1.0000 </r>
       <r>  -13.3679    1.0000 </r>
       <r>  -11.8548    1.0000 </r>
       <r>  -11.8548    1.0000 </r>
       <r>  -11.7247    1.0000 </r>
       <r>  -11.1967    1.0000 </r>
       <r>  -10.4691    1.0000 </r>
       <r>  -10.1647    1.0000 </r>
       <r>  -10.1458    1.0000 </r>
       <r>  -10.1138    1.0000 </r>
       <r>   -9.8231    1.0000 </r>
       <r>   -9.6814    1.0000 </r>
       <r>   -9.6463    1.0000 </r>
       <r>   -9.3141    1.0000 </r>
       <r>   -9.2299    1.0000 </r>
       <r>   -8.9779    1.0000 </r>
       <r>   -6.9769    1.0000 </r>
       <r>   -6.9763    1.0000 </r>
       <r>   -6.9688    1.0000 </r>
       <r>    1.5150    1.0000 </r>
       <r>    1.5546    1.0000 </r>
       <r>    1.5701    1.0000 </r>
       <r>    1.5820    1.0000 </r>
       <r>    1.6230    1.0000 </r>
       <r>    1.7691    1.0000 </r>
       <r>    3.1806    1.0000 </r>
       <r>    3.2115    1.0000 </r>
       <r>    3.3880    1.0000 </r>
       <r>    3.5143    1.0000 </r>
       <r>    3.6280    1.0000 </r>
       <r>    3.8201    1.0000 </r>
       <r>    4.0258    1.0000 </r>
       <r>    4.0269    1.0000 </r>
       <r>    4.0442    1.0000 </r>
       <r>    4.2933    1.0000 </r>
       <r>    4.2956    1.0000 </r>
       <r>    4.3759    1.0000 </r>
       <r>    4.4378    1.0000 </r>
       <r>    4.5114    1.0000 </r>
       <r>    4.5295    1.0000 </r>
       <r>    4.5675    1.0000 </r>
       <r>    4.5965    1.0000 </r>
       <r>    4.6792    1.0000 </r>
       <r>    6.9575    0.0000 </r>
       <r>    6.9736    0.0000 </r>
       <r>    6.9797    0.0000 </r>
       <r>    7.0156    0.0000 </r>
       <r>    7.0269    0.0000 </r>
       <r>    7.0272    0.0000 </r>
       <r>    7.0374    0.0000 </r>
       <r>    7.0716    0.0000 </r>
       <r>    7.0769    0.0000 </r>
       <r>    7.1475    0.0000 </r>
       <r>    7.1624    0.0000 </r>
       <r>    7.1754    0.0000 </r>
       <r>    7.1845    0.0000 </r>
       <r>    7.1944    0.0000 </r>
       <r>    7.1962    0.0000 </r>
       <r>    7.3836    0.0000 </r>
      </set>
      <set comment="kpoint 8">
       <r>  -27.3890    1.0000 </r>
       <r>  -27.2708    1.0000 </r>
       <r>  -27.2158    1.0000 </r>
       <r>  -27.2119    1.0000 </r>
       <r>  -13.1933    1.0000 </r>
       <r>  -13.1775    1.0000 </r>
       <r>  -13.1709    1.0000 </r>
       <r>  -12.2557    1.0000 </r>
       <r>  -12.2235    1.0000 </r>
       <r>  -12.1722    1.0000 </r>
       <r>  -11.0894    1.0000 </r>
       <r>  -10.6216    1.0000 </r>
       <r>  -10.1682    1.0000 </r>
       <r>  -10.1535    1.0000 </r>
       <r>  -10.0412    1.0000 </r>
       <r>   -9.7816    1.0000 </r>
       <r>   -9.7572    1.0000 </r>
       <r>   -9.6596    1.0000 </r>
       <r>   -8.7488    1.0000 </r>
       <r>   -8.7090    1.0000 </r>
       <r>   -8.5372    1.0000 </r>
       <r>   -7.2931    1.0000 </r>
       <r>   -7.2918    1.0000 </r>
       <r>   -7.2660    1.0000 </r>
       <r>    1.7337    1.0000 </r>
       <r>    1.7691    1.0000 </r>
       <r>    1.8606    1.0000 </r>
       <r>    1.8724    1.0000 </r>
       <r>    1.9867    1.0000 </r>
       <r>    2.1386    1.0000 </r>
       <r>    2.7924    1.0000 </r>
       <r>    2.7941    1.0000 </r>
       <r>    3.1277    1.0000 </r>
       <r>    3.2008    1.0000 </r>
       <r>    3.5535    1.0000 </r>
       <r>    3.6162    1.0000 </r>
       <r>    3.6653    1.0000 </r>
       <r>    3.8644    1.0000 </r>
       <r>    3.9033    1.0000 </r>
       <r>    4.1541    1.0000 </r>
       <r>    4.2827    1.0000 </r>
       <r>    4.3466    1.0000 </r>
       <r>    4.5382    1.0000 </r>
       <r>    4.5648    1.0000 </r>
       <r>    4.5705    1.0000 </r>
       <r>    4.6596    1.0000 </r>
       <r>    4.6983    1.0000 </r>
       <r>    4.7914    1.0000 </r>
       <r>    6.9614    0.0000 </r>
       <r>    6.9655    0.0000 </r>
       <r>    6.9820    0.0000 </r>
       <r>    7.0406    0.0000 </r>
       <r>    7.0494    0.0000 </r>
       <r>    7.0567    0.0000 </r>
       <r>    7.0621    0.0000 </r>
       <r>    7.1067    0.0000 </r>
       <r>    7.1274    0.0000 </r>
       <r>    7.1399    0.0000 </r>
       <r>    7.1874    0.0000 </r>
       <r>    7.1895    0.0000 </r>
       <r>    7.2031    0.0000 </r>
       <r>    7.2041    0.0000 </r>
       <r>    7.2410    0.0000 </r>
       <r>    7.3337    0.0000 </r>
      </set>
      <set comment="kpoint 9">
       <r>  -27.3508    1.0000 </r>
       <r>  -27.3098    1.0000 </r>
       <r>  -27.2145    1.0000 </r>
       <r>  -27.2131    1.0000 </r>
       <r>  -12.9404    1.0000 </r>
       <r>  -12.9089    1.0000 </r>
       <r>  -12.9058    1.0000 </r>
       <r>  -12.6245    1.0000 </r>
       <r>  -12.5841    1.0000 </r>
       <r>  -12.5714    1.0000 </r>
       <r>  -10.9497    1.0000 </r>
       <r>  -10.7887    1.0000 </r>
       <r>  -10.1680    1.0000 </r>
       <r>  -10.1627    1.0000 </r>
       <r>   -9.9503    1.0000 </r>
       <r>   -9.8515    1.0000 </r>
       <r>   -9.7344    1.0000 </r>
       <r>   -9.6908    1.0000 </r>
       <r>   -8.2039    1.0000 </r>
       <r>   -8.1868    1.0000 </r>
       <r>   -8.0792    1.0000 </r>
       <r>   -7.7097    1.0000 </r>
       <r>   -7.7041    1.0000 </r>
       <r>   -7.6453    1.0000 </r>
       <r>    2.0327    1.0000 </r>
       <r>    2.0508    1.0000 </r>
       <r>    2.1717    1.0000 </r>
       <r>    2.1821    1.0000 </r>
       <r>    2.3355    1.0000 </r>
       <r>    2.3930    1.0000 </r>
       <r>    2.5374    1.0000 </r>
       <r>    2.6001    1.0000 </r>
       <r>    2.8377    1.0000 </r>
       <r>    2.8664    1.0000 </r>
       <r>    3.0161    1.0000 </r>
       <r>    3.1118    1.0000 </r>
       <r>    3.7216    1.0000 </r>
       <r>    3.8005    1.0000 </r>
       <r>    3.9336    1.0000 </r>
       <r>    4.0301    1.0000 </r>
       <r>    4.2898    1.0000 </r>
       <r>    4.3138    1.0000 </r>
       <r>    4.5929    1.0000 </r>
       <r>    4.5938    1.0000 </r>
       <r>    4.6393    1.0000 </r>
       <r>    4.7047    1.0000 </r>
       <r>    4.7509    1.0000 </r>
       <r>    4.8069    1.0000 </r>
       <r>    6.9500    0.0000 </r>
       <r>    6.9520    0.0000 </r>
       <r>    7.0178    0.0000 </r>
       <r>    7.0552    0.0000 </r>
       <r>    7.0611    0.0000 </r>
       <r>    7.0627    0.0000 </r>
       <r>    7.0649    0.0000 </r>
       <r>    7.0720    0.0000 </r>
       <r>    7.1690    0.0000 </r>
       <r>    7.1880    0.0000 </r>
       <r>    7.1881    0.0000 </r>
       <r>    7.2049    0.0000 </r>
       <r>    7.2518    0.0000 </r>
       <r>    7.2603    0.0000 </r>
       <r>    7.3013    0.0000 </r>
       <r>    7.3020    0.0000 </r>
      </set>
      <set comment="kpoint 10">
       <r>  -27.4015    1.0000 </r>
       <r>  -27.2360    1.0000 </r>
       <r>  -27.2360    1.0000 </r>
       <r>  -27.2136    1.0000 </r>
       <r>  -13.2770    1.0000 </r>
       <r>  -13.2770    1.0000 </r>
       <r>  -13.2564    1.0000 </r>
       <r>  -12.0988    1.0000 </r>
       <r>  -12.0731    1.0000 </r>
       <r>  -11.6433    1.0000 </r>
       <r>  -11.6433    1.0000 </r>
       <r>  -10.6637    1.0000 </r>
       <r>  -10.1099    1.0000 </r>
       <r>  -10.1099    1.0000 </r>
       <r>  -10.0915    1.0000 </r>
       <r>   -9.6747    1.0000 </r>
       <r>   -9.5389    1.0000 </r>
       <r>   -9.3126    1.0000 </r>
       <r>   -9.3126    1.0000 </r>
       <r>   -8.9784    1.0000 </r>
       <r>   -8.7793    1.0000 </r>
       <r>   -7.1522    1.0000 </r>
       <r>   -7.1456    1.0000 </r>
       <r>   -7.1456    1.0000 </r>
       <r>    1.5920    1.0000 </r>
       <r>    1.6697    1.0000 </r>
       <r>    1.7512    1.0000 </r>
       <r>    1.8001    1.0000 </r>
       <r>    1.8001    1.0000 </r>
       <r>    2.0262    1.0000 </r>
       <r>    3.0970    1.0000 </r>
       <r>    3.0970    1.0000 </r>
       <r>    3.2282    1.0000 </r>
       <r>    3.2282    1.0000 </r>
       <r>    3.4178    1.0000 </r>
       <r>    3.7641    1.0000 </r>
       <r>    3.8022    1.0000 </r>
       <r>    4.0409    1.0000 </r>
       <r>    4.0556    1.0000 </r>
       <r>    4.0556    1.0000 </r>
       <r>    4.2064    1.0000 </r>
       <r>    4.3434    1.0000 </r>
       <r>    4.4300    1.0000 </r>
       <r>    4.4300    1.0000 </r>
       <r>    4.6337    1.0000 </r>
       <r>    4.6636    1.0000 </r>
       <r>    4.7294    1.0000 </r>
       <r>    4.7294    1.0000 </r>
       <r>    6.9658    0.0000 </r>
       <r>    6.9726    0.0000 </r>
       <r>    6.9726    0.0000 </r>
       <r>    7.0384    0.0000 </r>
       <r>    7.0579    0.0000 </r>
       <r>    7.0689    0.0000 </r>
       <r>    7.0689    0.0000 </r>
       <r>    7.0818    0.0000 </r>
       <r>    7.0818    0.0000 </r>
       <r>    7.1354    0.0000 </r>
       <r>    7.1631    0.0000 </r>
       <r>    7.1684    0.0000 </r>
       <r>    7.2014    0.0000 </r>
       <r>    7.2144    0.0000 </r>
       <r>    7.2144    0.0000 </r>
       <r>    7.3385    0.0000 </r>
      </set>
      <set comment="kpoint 11">
       <r>  -27.3733    1.0000 </r>
       <r>  -27.2652    1.0000 </r>
       <r>  -27.2320    1.0000 </r>
       <r>  -27.2174    1.0000 </r>
       <r>  -13.1277    1.0000 </r>
       <r>  -13.1142    1.0000 </r>
       <r>  -13.0648    1.0000 </r>
       <r>  -12.3900    1.0000 </r>
       <r>  -12.3511    1.0000 </r>
       <r>  -12.0796    1.0000 </r>
       <r>  -11.5117    1.0000 </r>
       <r>  -10.8948    1.0000 </r>
       <r>  -10.1018    1.0000 </r>
       <r>  -10.0713    1.0000 </r>
       <r>  -10.0257    1.0000 </r>
       <r>   -9.7249    1.0000 </r>
       <r>   -9.4410    1.0000 </r>
       <r>   -9.3163    1.0000 </r>
       <r>   -8.7790    1.0000 </r>
       <r>   -8.6087    1.0000 </r>
       <r>   -8.4664    1.0000 </r>
       <r>   -7.4358    1.0000 </r>
       <r>   -7.4247    1.0000 </r>
       <r>   -7.4074    1.0000 </r>
       <r>    1.7744    1.0000 </r>
       <r>    1.8539    1.0000 </r>
       <r>    2.0204    1.0000 </r>
       <r>    2.0705    1.0000 </r>
       <r>    2.1301    1.0000 </r>
       <r>    2.3769    1.0000 </r>
       <r>    2.7846    1.0000 </r>
       <r>    2.8061    1.0000 </r>
       <r>    2.9449    1.0000 </r>
       <r>    3.1766    1.0000 </r>
       <r>    3.2649    1.0000 </r>
       <r>    3.6024    1.0000 </r>
       <r>    3.6549    1.0000 </r>
       <r>    3.6848    1.0000 </r>
       <r>    3.7825    1.0000 </r>
       <r>    4.0871    1.0000 </r>
       <r>    4.2143    1.0000 </r>
       <r>    4.2724    1.0000 </r>
       <r>    4.2819    1.0000 </r>
       <r>    4.5015    1.0000 </r>
       <r>    4.7252    1.0000 </r>
       <r>    4.7716    1.0000 </r>
       <r>    4.7854    1.0000 </r>
       <r>    4.8469    1.0000 </r>
       <r>    6.9525    0.0000 </r>
       <r>    6.9685    0.0000 </r>
       <r>    6.9875    0.0000 </r>
       <r>    7.0525    0.0000 </r>
       <r>    7.0748    0.0000 </r>
       <r>    7.0893    0.0000 </r>
       <r>    7.0980    0.0000 </r>
       <r>    7.0987    0.0000 </r>
       <r>    7.1088    0.0000 </r>
       <r>    7.1425    0.0000 </r>
       <r>    7.1650    0.0000 </r>
       <r>    7.1849    0.0000 </r>
       <r>    7.2077    0.0000 </r>
       <r>    7.2492    0.0000 </r>
       <r>    7.2779    0.0000 </r>
       <r>    7.3004    0.0000 </r>
      </set>
      <set comment="kpoint 12">
       <r>  -27.3384    1.0000 </r>
       <r>  -27.3008    1.0000 </r>
       <r>  -27.2272    1.0000 </r>
       <r>  -27.2221    1.0000 </r>
       <r>  -12.9243    1.0000 </r>
       <r>  -12.8966    1.0000 </r>
       <r>  -12.8010    1.0000 </r>
       <r>  -12.6739    1.0000 </r>
       <r>  -12.6360    1.0000 </r>
       <r>  -12.4701    1.0000 </r>
       <r>  -11.3361    1.0000 </r>
       <r>  -11.1260    1.0000 </r>
       <r>  -10.0895    1.0000 </r>
       <r>  -10.0762    1.0000 </r>
       <r>   -9.9228    1.0000 </r>
       <r>   -9.8160    1.0000 </r>
       <r>   -9.3724    1.0000 </r>
       <r>   -9.3331    1.0000 </r>
       <r>   -8.2702    1.0000 </r>
       <r>   -8.1919    1.0000 </r>
       <r>   -8.1016    1.0000 </r>
       <r>   -7.8147    1.0000 </r>
       <r>   -7.7837    1.0000 </r>
       <r>   -7.7361    1.0000 </r>
       <r>    2.0518    1.0000 </r>
       <r>    2.0927    1.0000 </r>
       <r>    2.3183    1.0000 </r>
       <r>    2.3275    1.0000 </r>
       <r>    2.3710    1.0000 </r>
       <r>    2.4042    1.0000 </r>
       <r>    2.7099    1.0000 </r>
       <r>    2.7450    1.0000 </r>
       <r>    2.7943    1.0000 </r>
       <r>    2.8581    1.0000 </r>
       <r>    3.1560    1.0000 </r>
       <r>    3.2454    1.0000 </r>
       <r>    3.3333    1.0000 </r>
       <r>    3.4442    1.0000 </r>
       <r>    3.8686    1.0000 </r>
       <r>    4.0143    1.0000 </r>
       <r>    4.1409    1.0000 </r>
       <r>    4.2098    1.0000 </r>
       <r>    4.3952    1.0000 </r>
       <r>    4.4843    1.0000 </r>
       <r>    4.8147    1.0000 </r>
       <r>    4.8230    1.0000 </r>
       <r>    4.8231    1.0000 </r>
       <r>    4.8673    1.0000 </r>
       <r>    6.9476    0.0000 </r>
       <r>    6.9547    0.0000 </r>
       <r>    7.0164    0.0000 </r>
       <r>    7.0554    0.0000 </r>
       <r>    7.0666    0.0000 </r>
       <r>    7.0757    0.0000 </r>
       <r>    7.0982    0.0000 </r>
       <r>    7.1050    0.0000 </r>
       <r>    7.1404    0.0000 </r>
       <r>    7.1591    0.0000 </r>
       <r>    7.1909    0.0000 </r>
       <r>    7.2087    0.0000 </r>
       <r>    7.2474    0.0000 </r>
       <r>    7.2753    0.0000 </r>
       <r>    7.2799    0.0000 </r>
       <r>    7.3212    0.0000 </r>
      </set>
      <set comment="kpoint 13">
       <r>  -27.3491    1.0000 </r>
       <r>  -27.2569    1.0000 </r>
       <r>  -27.2569    1.0000 </r>
       <r>  -27.2256    1.0000 </r>
       <r>  -13.0209    1.0000 </r>
       <r>  -13.0209    1.0000 </r>
       <r>  -12.8790    1.0000 </r>
       <r>  -12.5620    1.0000 </r>
       <r>  -12.5232    1.0000 </r>
       <r>  -11.9286    1.0000 </r>
       <r>  -11.9286    1.0000 </r>
       <r>  -11.1923    1.0000 </r>
       <r>  -10.0035    1.0000 </r>
       <r>  -10.0035    1.0000 </r>
       <r>  -10.0030    1.0000 </r>
       <r>   -9.7295    1.0000 </r>
       <r>   -9.2297    1.0000 </r>
       <r>   -8.8355    1.0000 </r>
       <r>   -8.8355    1.0000 </r>
       <r>   -8.4265    1.0000 </r>
       <r>   -8.3228    1.0000 </r>
       <r>   -7.6707    1.0000 </r>
       <r>   -7.6253    1.0000 </r>
       <r>   -7.6253    1.0000 </r>
       <r>    1.9093    1.0000 </r>
       <r>    1.9923    1.0000 </r>
       <r>    2.2464    1.0000 </r>
       <r>    2.3486    1.0000 </r>
       <r>    2.3486    1.0000 </r>
       <r>    2.6917    1.0000 </r>
       <r>    2.7516    1.0000 </r>
       <r>    2.7516    1.0000 </r>
       <r>    2.8492    1.0000 </r>
       <r>    2.8492    1.0000 </r>
       <r>    3.0839    1.0000 </r>
       <r>    3.3259    1.0000 </r>
       <r>    3.6857    1.0000 </r>
       <r>    3.7259    1.0000 </r>
       <r>    3.7882    1.0000 </r>
       <r>    3.7882    1.0000 </r>
       <r>    3.9949    1.0000 </r>
       <r>    4.1772    1.0000 </r>
       <r>    4.2316    1.0000 </r>
       <r>    4.2316    1.0000 </r>
       <r>    4.8147    1.0000 </r>
       <r>    4.9113    1.0000 </r>
       <r>    4.9144    1.0000 </r>
       <r>    4.9144    1.0000 </r>
       <r>    6.9468    0.0000 </r>
       <r>    6.9807    0.0000 </r>
       <r>    6.9807    0.0000 </r>
       <r>    7.0675    0.0000 </r>
       <r>    7.0733    0.0000 </r>
       <r>    7.0982    0.0000 </r>
       <r>    7.0982    0.0000 </r>
       <r>    7.1445    0.0000 </r>
       <r>    7.1467    0.0000 </r>
       <r>    7.1467    0.0000 </r>
       <r>    7.1484    0.0000 </r>
       <r>    7.1914    0.0000 </r>
       <r>    7.2132    0.0000 </r>
       <r>    7.2754    0.0000 </r>
       <r>    7.3177    0.0000 </r>
       <r>    7.3180    0.0000 </r>
      </set>
      <set comment="kpoint 14">
       <r>  -27.3192    1.0000 </r>
       <r>  -27.2872    1.0000 </r>
       <r>  -27.2466    1.0000 </r>
       <r>  -27.2357    1.0000 </r>
       <r>  -12.8933    1.0000 </r>
       <r>  -12.8776    1.0000 </r>
       <r>  -12.7367    1.0000 </r>
       <r>  -12.7066    1.0000 </r>
       <r>  -12.6235    1.0000 </r>
       <r>  -12.3039    1.0000 </r>
       <r>  -11.7244    1.0000 </r>
       <r>  -11.4750    1.0000 </r>
       <r>   -9.9822    1.0000 </r>
       <r>   -9.9760    1.0000 </r>
       <r>   -9.8915    1.0000 </r>
       <r>   -9.7907    1.0000 </r>
       <r>   -9.0557    1.0000 </r>
       <r>   -8.9253    1.0000 </r>
       <r>   -8.3853    1.0000 </r>
       <r>   -8.1751    1.0000 </r>
       <r>   -8.1114    1.0000 </r>
       <r>   -7.9911    1.0000 </r>
       <r>   -7.8934    1.0000 </r>
       <r>   -7.8657    1.0000 </r>
       <r>    2.1437    1.0000 </r>
       <r>    2.1753    1.0000 </r>
       <r>    2.3725    1.0000 </r>
       <r>    2.4648    1.0000 </r>
       <r>    2.4767    1.0000 </r>
       <r>    2.5899    1.0000 </r>
       <r>    2.6838    1.0000 </r>
       <r>    2.8873    1.0000 </r>
       <r>    2.8944    1.0000 </r>
       <r>    2.9437    1.0000 </r>
       <r>    3.0522    1.0000 </r>
       <r>    3.1022    1.0000 </r>
       <r>    3.3209    1.0000 </r>
       <r>    3.4293    1.0000 </r>
       <r>    3.7810    1.0000 </r>
       <r>    3.9144    1.0000 </r>
       <r>    3.9648    1.0000 </r>
       <r>    4.0493    1.0000 </r>
       <r>    4.0609    1.0000 </r>
       <r>    4.1762    1.0000 </r>
       <r>    4.8997    1.0000 </r>
       <r>    4.9449    1.0000 </r>
       <r>    4.9656    1.0000 </r>
       <r>    4.9723    1.0000 </r>
       <r>    6.9504    0.0000 </r>
       <r>    6.9641    0.0000 </r>
       <r>    7.0043    0.0000 </r>
       <r>    7.0373    0.0000 </r>
       <r>    7.0820    0.0000 </r>
       <r>    7.0920    0.0000 </r>
       <r>    7.1212    0.0000 </r>
       <r>    7.1377    0.0000 </r>
       <r>    7.1522    0.0000 </r>
       <r>    7.1566    0.0000 </r>
       <r>    7.1955    0.0000 </r>
       <r>    7.2139    0.0000 </r>
       <r>    7.2450    0.0000 </r>
       <r>    7.2692    0.0000 </r>
       <r>    7.2888    0.0000 </r>
       <r>    7.3231    0.0000 </r>
      </set>
      <set comment="kpoint 15">
       <r>  -27.2955    1.0000 </r>
       <r>  -27.2704    1.0000 </r>
       <r>  -27.2704    1.0000 </r>
       <r>  -27.2526    1.0000 </r>
       <r>  -12.8449    1.0000 </r>
       <r>  -12.8449    1.0000 </r>
       <r>  -12.7970    1.0000 </r>
       <r>  -12.7804    1.0000 </r>
       <r>  -12.3805    1.0000 </r>
       <r>  -12.0777    1.0000 </r>
       <r>  -12.0777    1.0000 </r>
       <r>  -11.7978    1.0000 </r>
       <r>   -9.9030    1.0000 </r>
       <r>   -9.8774    1.0000 </r>
       <r>   -9.8774    1.0000 </r>
       <r>   -9.8076    1.0000 </r>
       <r>   -8.7784    1.0000 </r>
       <r>   -8.5539    1.0000 </r>
       <r>   -8.5539    1.0000 </r>
       <r>   -8.2390    1.0000 </r>
       <r>   -8.1137    1.0000 </r>
       <r>   -8.0816    1.0000 </r>
       <r>   -8.0032    1.0000 </r>
       <r>   -8.0032    1.0000 </r>
       <r>    2.2979    1.0000 </r>
       <r>    2.3265    1.0000 </r>
       <r>    2.4470    1.0000 </r>
       <r>    2.4470    1.0000 </r>
       <r>    2.5094    1.0000 </r>
       <r>    2.5985    1.0000 </r>
       <r>    2.5985    1.0000 </r>
       <r>    2.8133    1.0000 </r>
       <r>    3.0062    1.0000 </r>
       <r>    3.0300    1.0000 </r>
       <r>    3.0300    1.0000 </r>
       <r>    3.3360    1.0000 </r>
       <r>    3.3419    1.0000 </r>
       <r>    3.6383    1.0000 </r>
       <r>    3.6383    1.0000 </r>
       <r>    3.7354    1.0000 </r>
       <r>    3.8244    1.0000 </r>
       <r>    3.8518    1.0000 </r>
       <r>    3.8745    1.0000 </r>
       <r>    3.8745    1.0000 </r>
       <r>    4.9766    1.0000 </r>
       <r>    5.0099    1.0000 </r>
       <r>    5.0099    1.0000 </r>
       <r>    5.0291    1.0000 </r>
       <r>    6.9625    0.0000 </r>
       <r>    6.9830    0.0000 </r>
       <r>    6.9830    0.0000 </r>
       <r>    7.0096    0.0000 </r>
       <r>    7.0976    0.0000 </r>
       <r>    7.1100    0.0000 </r>
       <r>    7.1100    0.0000 </r>
       <r>    7.1246    0.0000 </r>
       <r>    7.1972    0.0000 </r>
       <r>    7.2005    0.0000 </r>
       <r>    7.2005    0.0000 </r>
       <r>    7.2161    0.0000 </r>
       <r>    7.2699    0.0000 </r>
       <r>    7.2760    0.0000 </r>
       <r>    7.3068    0.0000 </r>
       <r>    7.3069    0.0000 </r>
      </set>
      <set comment="kpoint 16">
       <r>  -27.4330    1.0000 </r>
       <r>  -27.2176    1.0000 </r>
       <r>  -27.2176    1.0000 </r>
       <r>  -27.2176    1.0000 </r>
       <r>  -13.4523    1.0000 </r>
       <r>  -13.4523    1.0000 </r>
       <r>  -13.4523    1.0000 </r>
       <r>  -11.6598    1.0000 </r>
       <r>  -11.4487    1.0000 </r>
       <r>  -11.4487    1.0000 </r>
       <r>  -11.4487    1.0000 </r>
       <r>  -10.3832    1.0000 </r>
       <r>  -10.1380    1.0000 </r>
       <r>  -10.1380    1.0000 </r>
       <r>  -10.1380    1.0000 </r>
       <r>   -9.6655    1.0000 </r>
       <r>   -9.6655    1.0000 </r>
       <r>   -9.6655    1.0000 </r>
       <r>   -9.6598    1.0000 </r>
       <r>   -9.6598    1.0000 </r>
       <r>   -9.1900    1.0000 </r>
       <r>   -6.8425    1.0000 </r>
       <r>   -6.8425    1.0000 </r>
       <r>   -6.8425    1.0000 </r>
       <r>    1.4375    1.0000 </r>
       <r>    1.4375    1.0000 </r>
       <r>    1.4552    1.0000 </r>
       <r>    1.4552    1.0000 </r>
       <r>    1.4552    1.0000 </r>
       <r>    1.6239    1.0000 </r>
       <r>    3.5416    1.0000 </r>
       <r>    3.5416    1.0000 </r>
       <r>    3.5416    1.0000 </r>
       <r>    3.5570    1.0000 </r>
       <r>    3.5570    1.0000 </r>
       <r>    3.5570    1.0000 </r>
       <r>    4.3150    1.0000 </r>
       <r>    4.3150    1.0000 </r>
       <r>    4.3150    1.0000 </r>
       <r>    4.3412    1.0000 </r>
       <r>    4.3499    1.0000 </r>
       <r>    4.3499    1.0000 </r>
       <r>    4.3499    1.0000 </r>
       <r>    4.4089    1.0000 </r>
       <r>    4.4089    1.0000 </r>
       <r>    4.5223    1.0000 </r>
       <r>    4.5223    1.0000 </r>
       <r>    4.5223    1.0000 </r>
       <r>    6.9622    0.0000 </r>
       <r>    6.9622    0.0000 </r>
       <r>    6.9622    0.0000 </r>
       <r>    7.0105    0.0000 </r>
       <r>    7.0105    0.0000 </r>
       <r>    7.0105    0.0000 </r>
       <r>    7.0410    0.0000 </r>
       <r>    7.0410    0.0000 </r>
       <r>    7.0410    0.0000 </r>
       <r>    7.1691    0.0000 </r>
       <r>    7.1691    0.0000 </r>
       <r>    7.1691    0.0000 </r>
       <r>    7.1760    0.0000 </r>
       <r>    7.1760    0.0000 </r>
       <r>    7.1873    0.0000 </r>
       <r>    7.4289    0.0000 </r>
      </set>
      <set comment="kpoint 17">
       <r>  -27.4137    1.0000 </r>
       <r>  -27.2380    1.0000 </r>
       <r>  -27.2175    1.0000 </r>
       <r>  -27.2175    1.0000 </r>
       <r>  -13.3427    1.0000 </r>
       <r>  -13.3427    1.0000 </r>
       <r>  -13.3391    1.0000 </r>
       <r>  -11.9407    1.0000 </r>
       <r>  -11.8211    1.0000 </r>
       <r>  -11.8211    1.0000 </r>
       <r>  -11.3697    1.0000 </r>
       <r>  -10.4959    1.0000 </r>
       <r>  -10.1301    1.0000 </r>
       <r>  -10.1301    1.0000 </r>
       <r>  -10.0964    1.0000 </r>
       <r>   -9.7068    1.0000 </r>
       <r>   -9.6455    1.0000 </r>
       <r>   -9.6366    1.0000 </r>
       <r>   -9.2318    1.0000 </r>
       <r>   -9.2318    1.0000 </r>
       <r>   -8.8827    1.0000 </r>
       <r>   -7.0314    1.0000 </r>
       <r>   -7.0314    1.0000 </r>
       <r>   -7.0248    1.0000 </r>
       <r>    1.5441    1.0000 </r>
       <r>    1.5652    1.0000 </r>
       <r>    1.6435    1.0000 </r>
       <r>    1.6435    1.0000 </r>
       <r>    1.6828    1.0000 </r>
       <r>    1.8751    1.0000 </r>
       <r>    3.1641    1.0000 </r>
       <r>    3.1977    1.0000 </r>
       <r>    3.3820    1.0000 </r>
       <r>    3.3820    1.0000 </r>
       <r>    3.5583    1.0000 </r>
       <r>    3.5583    1.0000 </r>
       <r>    4.0474    1.0000 </r>
       <r>    4.0558    1.0000 </r>
       <r>    4.2254    1.0000 </r>
       <r>    4.2254    1.0000 </r>
       <r>    4.2998    1.0000 </r>
       <r>    4.2998    1.0000 </r>
       <r>    4.4502    1.0000 </r>
       <r>    4.4775    1.0000 </r>
       <r>    4.5681    1.0000 </r>
       <r>    4.5847    1.0000 </r>
       <r>    4.5847    1.0000 </r>
       <r>    4.6721    1.0000 </r>
       <r>    6.9675    0.0000 </r>
       <r>    6.9806    0.0000 </r>
       <r>    6.9806    0.0000 </r>
       <r>    7.0093    0.0000 </r>
       <r>    7.0093    0.0000 </r>
       <r>    7.0514    0.0000 </r>
       <r>    7.0606    0.0000 </r>
       <r>    7.0606    0.0000 </r>
       <r>    7.0948    0.0000 </r>
       <r>    7.1474    0.0000 </r>
       <r>    7.1743    0.0000 </r>
       <r>    7.1743    0.0000 </r>
       <r>    7.1802    0.0000 </r>
       <r>    7.1916    0.0000 </r>
       <r>    7.1986    0.0000 </r>
       <r>    7.3776    0.0000 </r>
      </set>
      <set comment="kpoint 18">
       <r>  -27.3838    1.0000 </r>
       <r>  -27.2691    1.0000 </r>
       <r>  -27.2174    1.0000 </r>
       <r>  -27.2174    1.0000 </r>
       <r>  -13.1635    1.0000 </r>
       <r>  -13.1635    1.0000 </r>
       <r>  -13.1553    1.0000 </r>
       <r>  -12.2771    1.0000 </r>
       <r>  -12.2140    1.0000 </r>
       <r>  -12.2140    1.0000 </r>
       <r>  -11.2428    1.0000 </r>
       <r>  -10.6782    1.0000 </r>
       <r>  -10.1339    1.0000 </r>
       <r>  -10.1339    1.0000 </r>
       <r>  -10.0318    1.0000 </r>
       <r>   -9.7777    1.0000 </r>
       <r>   -9.6189    1.0000 </r>
       <r>   -9.6004    1.0000 </r>
       <r>   -8.7251    1.0000 </r>
       <r>   -8.7251    1.0000 </r>
       <r>   -8.4915    1.0000 </r>
       <r>   -7.3320    1.0000 </r>
       <r>   -7.3320    1.0000 </r>
       <r>   -7.3079    1.0000 </r>
       <r>    1.7505    1.0000 </r>
       <r>    1.7719    1.0000 </r>
       <r>    1.9272    1.0000 </r>
       <r>    1.9272    1.0000 </r>
       <r>    2.0339    1.0000 </r>
       <r>    2.2341    1.0000 </r>
       <r>    2.7624    1.0000 </r>
       <r>    2.8181    1.0000 </r>
       <r>    3.1241    1.0000 </r>
       <r>    3.1241    1.0000 </r>
       <r>    3.5692    1.0000 </r>
       <r>    3.5692    1.0000 </r>
       <r>    3.5936    1.0000 </r>
       <r>    3.6410    1.0000 </r>
       <r>    4.0963    1.0000 </r>
       <r>    4.0963    1.0000 </r>
       <r>    4.2844    1.0000 </r>
       <r>    4.2844    1.0000 </r>
       <r>    4.5565    1.0000 </r>
       <r>    4.5716    1.0000 </r>
       <r>    4.6389    1.0000 </r>
       <r>    4.6389    1.0000 </r>
       <r>    4.6906    1.0000 </r>
       <r>    4.7537    1.0000 </r>
       <r>    6.9628    0.0000 </r>
       <r>    6.9628    0.0000 </r>
       <r>    6.9872    0.0000 </r>
       <r>    7.0361    0.0000 </r>
       <r>    7.0361    0.0000 </r>
       <r>    7.0829    0.0000 </r>
       <r>    7.0829    0.0000 </r>
       <r>    7.1047    0.0000 </r>
       <r>    7.1061    0.0000 </r>
       <r>    7.1530    0.0000 </r>
       <r>    7.1832    0.0000 </r>
       <r>    7.1982    0.0000 </r>
       <r>    7.1996    0.0000 </r>
       <r>    7.1996    0.0000 </r>
       <r>    7.2534    0.0000 </r>
       <r>    7.3321    0.0000 </r>
      </set>
      <set comment="kpoint 19">
       <r>  -27.3468    1.0000 </r>
       <r>  -27.3068    1.0000 </r>
       <r>  -27.2173    1.0000 </r>
       <r>  -27.2173    1.0000 </r>
       <r>  -12.9297    1.0000 </r>
       <r>  -12.9297    1.0000 </r>
       <r>  -12.9083    1.0000 </r>
       <r>  -12.6098    1.0000 </r>
       <r>  -12.5620    1.0000 </r>
       <r>  -12.5620    1.0000 </r>
       <r>  -11.0761    1.0000 </r>
       <r>  -10.8818    1.0000 </r>
       <r>  -10.1379    1.0000 </r>
       <r>  -10.1379    1.0000 </r>
       <r>   -9.9509    1.0000 </r>
       <r>   -9.8627    1.0000 </r>
       <r>   -9.5952    1.0000 </r>
       <r>   -9.5859    1.0000 </r>
       <r>   -8.2308    1.0000 </r>
       <r>   -8.2308    1.0000 </r>
       <r>   -8.0723    1.0000 </r>
       <r>   -7.7155    1.0000 </r>
       <r>   -7.7155    1.0000 </r>
       <r>   -7.6667    1.0000 </r>
       <r>    2.0355    1.0000 </r>
       <r>    2.0486    1.0000 </r>
       <r>    2.2344    1.0000 </r>
       <r>    2.2344    1.0000 </r>
       <r>    2.3177    1.0000 </r>
       <r>    2.3838    1.0000 </r>
       <r>    2.6112    1.0000 </r>
       <r>    2.6731    1.0000 </r>
       <r>    2.8309    1.0000 </r>
       <r>    2.8309    1.0000 </r>
       <r>    3.0714    1.0000 </r>
       <r>    3.1636    1.0000 </r>
       <r>    3.5788    1.0000 </r>
       <r>    3.5788    1.0000 </r>
       <r>    4.0155    1.0000 </r>
       <r>    4.0155    1.0000 </r>
       <r>    4.2755    1.0000 </r>
       <r>    4.2755    1.0000 </r>
       <r>    4.6622    1.0000 </r>
       <r>    4.6670    1.0000 </r>
       <r>    4.6696    1.0000 </r>
       <r>    4.6696    1.0000 </r>
       <r>    4.7138    1.0000 </r>
       <r>    4.7448    1.0000 </r>
       <r>    6.9490    0.0000 </r>
       <r>    6.9490    0.0000 </r>
       <r>    7.0198    0.0000 </r>
       <r>    7.0515    0.0000 </r>
       <r>    7.0515    0.0000 </r>
       <r>    7.0612    0.0000 </r>
       <r>    7.0896    0.0000 </r>
       <r>    7.0896    0.0000 </r>
       <r>    7.1506    0.0000 </r>
       <r>    7.1769    0.0000 </r>
       <r>    7.1904    0.0000 </r>
       <r>    7.2014    0.0000 </r>
       <r>    7.2423    0.0000 </r>
       <r>    7.2423    0.0000 </r>
       <r>    7.3178    0.0000 </r>
       <r>    7.3185    0.0000 </r>
      </set>
      <set comment="kpoint 20">
       <r>  -27.3959    1.0000 </r>
       <r>  -27.2360    1.0000 </r>
       <r>  -27.2360    1.0000 </r>
       <r>  -27.2193    1.0000 </r>
[...]
       <r>    3.7666    1.0000 </r>
       <r>    3.8304    1.0000 </r>
       <r>    4.1530    1.0000 </r>
       <r>    4.1704    1.0000 </r>
       <r>    4.2075    1.0000 </r>
       <r>    4.2075    1.0000 </r>
       <r>    4.4521    1.0000 </r>
       <r>    4.5575    1.0000 </r>
       <r>    4.5575    1.0000 </r>
       <r>    4.6156    1.0000 </r>
       <r>    6.8999    0.0000 </r>
       <r>    6.9223    0.0000 </r>
       <r>    6.9223    0.0000 </r>
       <r>    6.9681    0.0000 </r>
       <r>    7.0512    0.0000 </r>
       <r>    7.0512    0.0000 </r>
       <r>    7.0556    0.0000 </r>
       <r>    7.0637    0.0000 </r>
       <r>    7.0728    0.0000 </r>
       <r>    7.0729    0.0000 </r>
       <r>    7.0803    0.0000 </r>
       <r>    7.0803    0.0000 </r>
       <r>    7.1953    0.0000 </r>
       <r>    7.1964    0.0000 </r>
       <r>    7.1964    0.0000 </r>
       <r>    7.1967    0.0000 </r>
      </set>
      <set comment="kpoint 35">
       <r>  -27.2771    1.0000 </r>
       <r>  -27.2695    1.0000 </r>
       <r>  -27.2695    1.0000 </r>
       <r>  -27.2695    1.0000 </r>
       <r>  -13.2306    1.0000 </r>
       <r>  -13.2306    1.0000 </r>
       <r>  -13.2306    1.0000 </r>
       <r>  -13.2102    1.0000 </r>
       <r>  -11.2154    1.0000 </r>
       <r>  -11.2154    1.0000 </r>
       <r>  -11.2154    1.0000 </r>
       <r>  -11.0437    1.0000 </r>
       <r>   -9.8609    1.0000 </r>
       <r>   -9.8609    1.0000 </r>
       <r>   -9.8609    1.0000 </r>
       <r>   -9.8443    1.0000 </r>
       <r>   -9.8443    1.0000 </r>
       <r>   -9.6857    1.0000 </r>
       <r>   -9.6857    1.0000 </r>
       <r>   -9.6857    1.0000 </r>
       <r>   -7.3329    1.0000 </r>
       <r>   -7.3161    1.0000 </r>
       <r>   -7.3161    1.0000 </r>
       <r>   -7.3161    1.0000 </r>
       <r>    2.1622    1.0000 </r>
       <r>    2.1622    1.0000 </r>
       <r>    2.2172    1.0000 </r>
       <r>    2.2172    1.0000 </r>
       <r>    2.2172    1.0000 </r>
       <r>    2.2235    1.0000 </r>
       <r>    2.2235    1.0000 </r>
       <r>    2.2235    1.0000 </r>
       <r>    3.6672    1.0000 </r>
       <r>    3.6672    1.0000 </r>
       <r>    3.6672    1.0000 </r>
       <r>    3.6787    1.0000 </r>
       <r>    3.7903    1.0000 </r>
       <r>    3.7903    1.0000 </r>
       <r>    3.7903    1.0000 </r>
       <r>    3.8852    1.0000 </r>
       <r>    4.2452    1.0000 </r>
       <r>    4.2452    1.0000 </r>
       <r>    4.2544    1.0000 </r>
       <r>    4.2544    1.0000 </r>
       <r>    4.2544    1.0000 </r>
       <r>    4.3768    1.0000 </r>
       <r>    4.3768    1.0000 </r>
       <r>    4.3768    1.0000 </r>
       <r>    6.8905    0.0000 </r>
       <r>    6.8905    0.0000 </r>
       <r>    6.8905    0.0000 </r>
       <r>    6.9153    0.0000 </r>
       <r>    7.0507    0.0000 </r>
       <r>    7.0507    0.0000 </r>
       <r>    7.0507    0.0000 </r>
       <r>    7.0567    0.0000 </r>
       <r>    7.0567    0.0000 </r>
       <r>    7.0610    0.0000 </r>
       <r>    7.0610    0.0000 </r>
       <r>    7.0610    0.0000 </r>
       <r>    7.1947    0.0000 </r>
       <r>    7.1955    0.0000 </r>
       <r>    7.1955    0.0000 </r>
       <r>    7.1955    0.0000 </r>
      </set>
     </set>
    </set>
   </array>
  </eigenvalues>
  <separator name="orbital magnetization" >
   <v name="MAGDIPOLOUT">      0.00000000      0.00000000      0.00000000</v>
  </separator>
  <dos>
   <i name="efermi">      5.34895940 </i>
   <total>
    <array>
     <dimension dim="1">gridpoints</dimension>
     <dimension dim="2">spin</dimension>
     <field>energy</field>
     <field>total</field>
     <field>integrated</field>
     <set>
      <set comment="spin 1">
       <r>   -29.1977     0.0000     0.0000 </r>
       <r>   -29.0698     0.0000     0.0000 </r>
       <r>   -28.9419     0.0000     0.0000 </r>
       <r>   -28.8140     0.0000     0.0000 </r>
       <r>   -28.6860     0.0000     0.0000 </r>
       <r>   -28.5581     0.0000     0.0000 </r>
       <r>   -28.4302     0.0000     0.0000 </r>
       <r>   -28.3023     0.0000     0.0000 </r>
       <r>   -28.1744     0.0000     0.0000 </r>
       <r>   -28.0464     0.0000     0.0000 </r>
       <r>   -27.9185     0.0000     0.0000 </r>
       <r>   -27.7906     0.0000     0.0000 </r>
       <r>   -27.6627     0.0000     0.0000 </r>
       <r>   -27.5347     0.0030     0.0004 </r>
       <r>   -27.4068     2.3131     0.2963 </r>
       <r>   -27.2789    22.5716     3.1837 </r>
       <r>   -27.1510    37.1237     7.9326 </r>
       <r>   -27.0231     0.5273     8.0000 </r>
       <r>   -26.8951     0.0000     8.0000 </r>
       <r>   -26.7672     0.0000     8.0000 </r>
       <r>   -26.6393     0.0000     8.0000 </r>
       <r>   -26.5114     0.0000     8.0000 </r>
       <r>   -26.3835     0.0000     8.0000 </r>
       <r>   -26.2555     0.0000     8.0000 </r>
       <r>   -26.1276     0.0000     8.0000 </r>
       <r>   -25.9997     0.0000     8.0000 </r>
       <r>   -25.8718     0.0000     8.0000 </r>
       <r>   -25.7439     0.0000     8.0000 </r>
       <r>   -25.6159     0.0000     8.0000 </r>
       <r>   -25.4880     0.0000     8.0000 </r>
       <r>   -25.3601     0.0000     8.0000 </r>
       <r>   -25.2322     0.0000     8.0000 </r>
       <r>   -25.1042     0.0000     8.0000 </r>
       <r>   -24.9763     0.0000     8.0000 </r>
       <r>   -24.8484     0.0000     8.0000 </r>
       <r>   -24.7205     0.0000     8.0000 </r>
       <r>   -24.5926     0.0000     8.0000 </r>
       <r>   -24.4646     0.0000     8.0000 </r>
       <r>   -24.3367     0.0000     8.0000 </r>
       <r>   -24.2088     0.0000     8.0000 </r>
       <r>   -24.0809     0.0000     8.0000 </r>
       <r>   -23.9530     0.0000     8.0000 </r>
       <r>   -23.8250     0.0000     8.0000 </r>
       <r>   -23.6971     0.0000     8.0000 </r>
       <r>   -23.5692     0.0000     8.0000 </r>
       <r>   -23.4413     0.0000     8.0000 </r>
       <r>   -23.3134     0.0000     8.0000 </r>
       <r>   -23.1854     0.0000     8.0000 </r>
       <r>   -23.0575     0.0000     8.0000 </r>
       <r>   -22.9296     0.0000     8.0000 </r>
       <r>   -22.8017     0.0000     8.0000 </r>
       <r>   -22.6737     0.0000     8.0000 </r>
       <r>   -22.5458     0.0000     8.0000 </r>
       <r>   -22.4179     0.0000     8.0000 </r>
       <r>   -22.2900     0.0000     8.0000 </r>
       <r>   -22.1621     0.0000     8.0000 </r>
       <r>   -22.0341     0.0000     8.0000 </r>
       <r>   -21.9062     0.0000     8.0000 </r>
       <r>   -21.7783     0.0000     8.0000 </r>
       <r>   -21.6504     0.0000     8.0000 </r>
       <r>   -21.5225     0.0000     8.0000 </r>
       <r>   -21.3945     0.0000     8.0000 </r>
       <r>   -21.2666     0.0000     8.0000 </r>
       <r>   -21.1387     0.0000     8.0000 </r>
       <r>   -21.0108     0.0000     8.0000 </r>
       <r>   -20.8829     0.0000     8.0000 </r>
       <r>   -20.7549     0.0000     8.0000 </r>
       <r>   -20.6270     0.0000     8.0000 </r>
       <r>   -20.4991     0.0000     8.0000 </r>
       <r>   -20.3712     0.0000     8.0000 </r>
       <r>   -20.2432     0.0000     8.0000 </r>
       <r>   -20.1153     0.0000     8.0000 </r>
       <r>   -19.9874     0.0000     8.0000 </r>
       <r>   -19.8595     0.0000     8.0000 </r>
       <r>   -19.7316     0.0000     8.0000 </r>
       <r>   -19.6036     0.0000     8.0000 </r>
       <r>   -19.4757     0.0000     8.0000 </r>
       <r>   -19.3478     0.0000     8.0000 </r>
       <r>   -19.2199     0.0000     8.0000 </r>
       <r>   -19.0920     0.0000     8.0000 </r>
       <r>   -18.9640     0.0000     8.0000 </r>
       <r>   -18.8361     0.0000     8.0000 </r>
       <r>   -18.7082     0.0000     8.0000 </r>
       <r>   -18.5803     0.0000     8.0000 </r>
       <r>   -18.4524     0.0000     8.0000 </r>
       <r>   -18.3244     0.0000     8.0000 </r>
       <r>   -18.1965     0.0000     8.0000 </r>
       <r>   -18.0686     0.0000     8.0000 </r>
       <r>   -17.9407     0.0000     8.0000 </r>
       <r>   -17.8127     0.0000     8.0000 </r>
       <r>   -17.6848     0.0000     8.0000 </r>
       <r>   -17.5569     0.0000     8.0000 </r>
       <r>   -17.4290     0.0000     8.0000 </r>
       <r>   -17.3011     0.0000     8.0000 </r>
       <r>   -17.1731     0.0000     8.0000 </r>
       <r>   -17.0452     0.0000     8.0000 </r>
       <r>   -16.9173     0.0000     8.0000 </r>
       <r>   -16.7894     0.0000     8.0000 </r>
       <r>   -16.6615     0.0000     8.0000 </r>
       <r>   -16.5335     0.0000     8.0000 </r>
       <r>   -16.4056     0.0000     8.0000 </r>
       <r>   -16.2777     0.0000     8.0000 </r>
       <r>   -16.1498     0.0000     8.0000 </r>
       <r>   -16.0219     0.0000     8.0000 </r>
       <r>   -15.8939     0.0000     8.0000 </r>
       <r>   -15.7660     0.0000     8.0000 </r>
       <r>   -15.6381     0.0000     8.0000 </r>
       <r>   -15.5102     0.0000     8.0000 </r>
       <r>   -15.3822     0.0000     8.0000 </r>
       <r>   -15.2543     0.0000     8.0000 </r>
       <r>   -15.1264     0.0000     8.0000 </r>
       <r>   -14.9985     0.0000     8.0000 </r>
       <r>   -14.8706     0.0000     8.0000 </r>
       <r>   -14.7426     0.0000     8.0000 </r>
       <r>   -14.6147     0.0000     8.0000 </r>
       <r>   -14.4868     0.0000     8.0000 </r>
       <r>   -14.3589     0.0000     8.0000 </r>
       <r>   -14.2310     0.0000     8.0000 </r>
       <r>   -14.1030     0.0000     8.0000 </r>
       <r>   -13.9751     0.0000     8.0000 </r>
       <r>   -13.8472     0.0000     8.0000 </r>
       <r>   -13.7193     0.0000     8.0000 </r>
       <r>   -13.5914     0.0341     8.0044 </r>
       <r>   -13.4634     1.2238     8.1609 </r>
       <r>   -13.3355     3.0881     8.5560 </r>
       <r>   -13.2076     4.6142     9.1462 </r>
       <r>   -13.0797    13.3978    10.8601 </r>
       <r>   -12.9517    13.2698    12.5576 </r>
       <r>   -12.8238    13.3513    14.2655 </r>
       <r>   -12.6959     4.3374    14.8203 </r>
       <r>   -12.5680     5.5001    15.5239 </r>
       <r>   -12.4401     4.1495    16.0547 </r>
       <r>   -12.3121     5.2805    16.7302 </r>
       <r>   -12.1842     5.7443    17.4650 </r>
       <r>   -12.0563     6.1583    18.2528 </r>
       <r>   -11.9284     3.9880    18.7629 </r>
       <r>   -11.8005     5.3134    19.4426 </r>
       <r>   -11.6725     6.1806    20.2332 </r>
       <r>   -11.5446     3.4211    20.6709 </r>
       <r>   -11.4167     4.7859    21.2831 </r>
       <r>   -11.2888     4.2238    21.8234 </r>
       <r>   -11.1609     3.7000    22.2967 </r>
       <r>   -11.0329     4.3023    22.8471 </r>
       <r>   -10.9050     1.8447    23.0830 </r>
       <r>   -10.7771     2.8113    23.4427 </r>
       <r>   -10.6492     1.2823    23.6067 </r>
       <r>   -10.5212     1.3838    23.7837 </r>
       <r>   -10.3933     1.1316    23.9285 </r>
       <r>   -10.2654     0.5661    24.0009 </r>
       <r>   -10.1375     6.5090    24.8335 </r>
       <r>   -10.0096    17.2969    27.0462 </r>
       <r>    -9.8816    19.8022    29.5793 </r>
       <r>    -9.7537    16.8351    31.7329 </r>
       <r>    -9.6258    11.6952    33.2289 </r>
       <r>    -9.4979     4.4770    33.8016 </r>
       <r>    -9.3700     5.3655    34.4880 </r>
       <r>    -9.2420     7.5537    35.4543 </r>
       <r>    -9.1141     5.2956    36.1317 </r>
       <r>    -8.9862     4.9336    36.7628 </r>
       <r>    -8.8583     4.4021    37.3259 </r>
       <r>    -8.7304     7.4700    38.2815 </r>
       <r>    -8.6024     4.1892    38.8174 </r>
       <r>    -8.4745     4.8831    39.4420 </r>
       <r>    -8.3466     3.9420    39.9463 </r>
       <r>    -8.2187     3.8637    40.4405 </r>
       <r>    -8.0907     4.6825    41.0395 </r>
       <r>    -7.9628     4.2627    41.5848 </r>
       <r>    -7.8349     4.0653    42.1049 </r>
       <r>    -7.7070     9.8391    43.3635 </r>
       <r>    -7.5791    10.8726    44.7543 </r>
       <r>    -7.4511     7.8141    45.7539 </r>
       <r>    -7.3232     6.8517    46.6304 </r>
       <r>    -7.1953     3.8533    47.1233 </r>
       <r>    -7.0674     1.8566    47.3608 </r>
       <r>    -6.9395     2.7041    47.7067 </r>
       <r>    -6.8115     1.1080    47.8484 </r>
       <r>    -6.6836     1.0431    47.9819 </r>
       <r>    -6.5557     0.1411    47.9999 </r>
       <r>    -6.4278     0.0005    48.0000 </r>
       <r>    -6.2999     0.0000    48.0000 </r>
       <r>    -6.1719     0.0000    48.0000 </r>
       <r>    -6.0440     0.0000    48.0000 </r>
       <r>    -5.9161     0.0000    48.0000 </r>
       <r>    -5.7882     0.0000    48.0000 </r>
       <r>    -5.6602     0.0000    48.0000 </r>
       <r>    -5.5323     0.0000    48.0000 </r>
       <r>    -5.4044     0.0000    48.0000 </r>
       <r>    -5.2765     0.0000    48.0000 </r>
       <r>    -5.1486     0.0000    48.0000 </r>
       <r>    -5.0206     0.0000    48.0000 </r>
       <r>    -4.8927     0.0000    48.0000 </r>
       <r>    -4.7648     0.0000    48.0000 </r>
       <r>    -4.6369     0.0000    48.0000 </r>
       <r>    -4.5090     0.0000    48.0000 </r>
       <r>    -4.3810     0.0000    48.0000 </r>
       <r>    -4.2531     0.0000    48.0000 </r>
       <r>    -4.1252     0.0000    48.0000 </r>
       <r>    -3.9973     0.0000    48.0000 </r>
       <r>    -3.8694     0.0000    48.0000 </r>
       <r>    -3.7414     0.0000    48.0000 </r>
       <r>    -3.6135     0.0000    48.0000 </r>
       <r>    -3.4856     0.0000    48.0000 </r>
       <r>    -3.3577     0.0000    48.0000 </r>
       <r>    -3.2297     0.0000    48.0000 </r>
       <r>    -3.1018     0.0000    48.0000 </r>
       <r>    -2.9739     0.0000    48.0000 </r>
       <r>    -2.8460     0.0000    48.0000 </r>
       <r>    -2.7181     0.0000    48.0000 </r>
       <r>    -2.5901     0.0000    48.0000 </r>
       <r>    -2.4622     0.0000    48.0000 </r>
       <r>    -2.3343     0.0000    48.0000 </r>
       <r>    -2.2064     0.0000    48.0000 </r>
       <r>    -2.0785     0.0000    48.0000 </r>
       <r>    -1.9505     0.0000    48.0000 </r>
       <r>    -1.8226     0.0000    48.0000 </r>
       <r>    -1.6947     0.0000    48.0000 </r>
       <r>    -1.5668     0.0000    48.0000 </r>
       <r>    -1.4389     0.0000    48.0000 </r>
       <r>    -1.3109     0.0000    48.0000 </r>
       <r>    -1.1830     0.0000    48.0000 </r>
       <r>    -1.0551     0.0000    48.0000 </r>
       <r>    -0.9272     0.0000    48.0000 </r>
       <r>    -0.7992     0.0000    48.0000 </r>
       <r>    -0.6713     0.0000    48.0000 </r>
       <r>    -0.5434     0.0000    48.0000 </r>
       <r>    -0.4155     0.0000    48.0000 </r>
       <r>    -0.2876     0.0000    48.0000 </r>
       <r>    -0.1596     0.0000    48.0000 </r>
       <r>    -0.0317     0.0000    48.0000 </r>
       <r>     0.0962     0.0000    48.0000 </r>
       <r>     0.2241     0.0000    48.0000 </r>
       <r>     0.3520     0.0000    48.0000 </r>
       <r>     0.4800     0.0000    48.0000 </r>
       <r>     0.6079     0.0000    48.0000 </r>
       <r>     0.7358     0.0000    48.0000 </r>
       <r>     0.8637     0.0000    48.0000 </r>
       <r>     0.9916     0.0000    48.0000 </r>
       <r>     1.1196     0.0000    48.0000 </r>
       <r>     1.2475     0.0502    48.0064 </r>
       <r>     1.3754     1.0154    48.1363 </r>
       <r>     1.5033     2.5631    48.4642 </r>
       <r>     1.6313     4.8207    49.0809 </r>
       <r>     1.7592     4.9011    49.7078 </r>
       <r>     1.8871     8.3106    50.7709 </r>
       <r>     2.0150     6.6497    51.6215 </r>
       <r>     2.1429    15.1094    53.5544 </r>
       <r>     2.2709    13.0344    55.2217 </r>
       <r>     2.3988    20.8681    57.8912 </r>
       <r>     2.5267    15.6772    59.8966 </r>
       <r>     2.6546     8.0821    60.9305 </r>
       <r>     2.7825    12.4665    62.5252 </r>
       <r>     2.9105    15.0590    64.4516 </r>
       <r>     3.0384    12.2819    66.0227 </r>
       <r>     3.1663    15.9811    68.0670 </r>
       <r>     3.2942    13.2715    69.7647 </r>
       <r>     3.4221    10.3123    71.0839 </r>
       <r>     3.5501     8.4273    72.1619 </r>
       <r>     3.6780    12.0722    73.7062 </r>
       <r>     3.8059    12.5142    75.3070 </r>
       <r>     3.9338    15.4783    77.2871 </r>
       <r>     4.0618    18.5448    79.6593 </r>
       <r>     4.1897    19.0350    82.0943 </r>
       <r>     4.3176    22.5568    84.9798 </r>
       <r>     4.4455    15.0678    86.9073 </r>
       <r>     4.5734    15.6103    88.9042 </r>
       <r>     4.7014    16.6219    91.0305 </r>
       <r>     4.8293    23.0778    93.9826 </r>
       <r>     4.9572    12.5830    95.5922 </r>
       <r>     5.0851     3.1632    95.9968 </r>
       <r>     5.2130     0.0246    96.0000 </r>
       <r>     5.3410     0.0000    96.0000 </r>
       <r>     5.4689     0.0000    96.0000 </r>
       <r>     5.5968     0.0000    96.0000 </r>
       <r>     5.7247     0.0000    96.0000 </r>
       <r>     5.8526     0.0000    96.0000 </r>
       <r>     5.9806     0.0000    96.0000 </r>
       <r>     6.1085     0.0000    96.0000 </r>
       <r>     6.2364     0.0000    96.0000 </r>
       <r>     6.3643     0.0000    96.0000 </r>
       <r>     6.4923     0.0000    96.0000 </r>
       <r>     6.6202     0.0000    96.0000 </r>
       <r>     6.7481     0.0000    96.0000 </r>
       <r>     6.8760     1.2073    96.1544 </r>
       <r>     7.0039    44.8574   101.8926 </r>
       <r>     7.1319    91.9756   113.6583 </r>
       <r>     7.2598    89.3265   125.0850 </r>
       <r>     7.3877    21.2572   127.8042 </r>
       <r>     7.5156     1.5258   127.9994 </r>
       <r>     7.6435     0.0046   128.0000 </r>
       <r>     7.7715     0.0000   128.0000 </r>
       <r>     7.8994     0.0000   128.0000 </r>
       <r>     8.0273     0.0000   128.0000 </r>
       <r>     8.1552     0.0000   128.0000 </r>
       <r>     8.2831     0.0000   128.0000 </r>
       <r>     8.4111     0.0000   128.0000 </r>
       <r>     8.5390     0.0000   128.0000 </r>
       <r>     8.6669     0.0000   128.0000 </r>
       <r>     8.7948     0.0000   128.0000 </r>
       <r>     8.9228     0.0000   128.0000 </r>
       <r>     9.0507     0.0000   128.0000 </r>
       <r>     9.1786     0.0000   128.0000 </r>
      </set>
     </set>
    </array>
   </total>
  </dos>
 </calculation>
 <structure name="finalpos" >
  <crystal>
   <varray name="basis" >
    <v>       5.46745035       0.00000000       0.00000000 </v>
    <v>       0.00000000       5.46745035       0.00000000 </v>
    <v>       0.00000000       0.00000000       5.46745035 </v>
   </varray>
   <i name="volume">    163.43856619 </i>
   <varray name="rec_basis" >
    <v>       0.18290061       0.00000000       0.00000000 </v>
    <v>       0.00000000       0.18290061       0.00000000 </v>
    <v>       0.00000000       0.00000000       0.18290061 </v>
   </varray>
  </crystal>
  <varray name="positions" >
   <v>       0.00000000       0.00000000       0.00000000 </v>
   <v>       0.50000000       0.50000000       0.00000000 </v>
   <v>       0.50000000       0.00000000       0.50000000 </v>
   <v>       0.00000000       0.50000000       0.50000000 </v>
   <v>       0.25000000       0.25000000       0.25000000 </v>
   <v>       0.75000000       0.75000000       0.75000000 </v>
   <v>       0.75000000       0.25000000       0.25000000 </v>
   <v>       0.25000000       0.75000000       0.75000000 </v>
   <v>       0.75000000       0.75000000       0.25000000 </v>
   <v>       0.25000000       0.25000000       0.75000000 </v>
   <v>       0.25000000       0.75000000       0.25000000 </v>
   <v>       0.75000000       0.25000000       0.75000000 </v>
  </varray>
 </structure>
</modeling>
