  99  99   0   0
  0.2476804E+02  0.1159820E-08  0.1159820E-08  0.2104820E-08  0.5000000E-15
  1.000000000000000E-004
  CAR 
 unknown system                          
      3.09416605    -37.00889586  301     -1.30046115      1.00000000
    -37.009  0.0000E+00  0.0000E+00  0.0000E+00  0.0000E+00
    -36.875  0.0000E+00  0.0000E+00  0.0000E+00  0.0000E+00
    -36.742  0.0000E+00  0.0000E+00  0.0000E+00  0.0000E+00
    -36.608  0.0000E+00  0.0000E+00  0.0000E+00  0.0000E+00
    -36.474  0.0000E+00  0.0000E+00  0.0000E+00  0.0000E+00
    -36.341  0.0000E+00  0.0000E+00  0.0000E+00  0.0000E+00
    -36.207  0.0000E+00  0.0000E+00  0.0000E+00  0.0000E+00
    -36.073  0.0000E+00  0.0000E+00  0.0000E+00  0.0000E+00
    -35.939  0.0000E+00  0.0000E+00  0.0000E+00  0.0000E+00
    -35.806  0.0000E+00  0.0000E+00  0.0000E+00  0.0000E+00
    -35.672  0.0000E+00  0.0000E+00  0.0000E+00  0.0000E+00
    -35.538  0.0000E+00  0.0000E+00  0.0000E+00  0.0000E+00
    -35.405  0.3168E-12  0.1207E-11  0.4235E-13  0.1613E-12
    -35.271  0.3578E-04  0.6726E-04  0.4783E-05  0.8991E-05
    -35.137  0.3835E-01  0.4744E-01  0.5131E-02  0.6351E-02
    -35.004  0.3548E+00  0.4269E+00  0.5256E-01  0.6341E-01
    -34.870  0.2774E+00  0.1985E+00  0.8964E-01  0.8995E-01
    -34.736  0.2693E-02  0.3979E-03  0.9000E-01  0.9000E-01
    -34.603  0.5600E-09  0.6741E-11  0.9000E-01  0.9000E-01
    -34.469  0.0000E+00  0.0000E+00  0.9000E-01  0.9000E-01
    -34.335  0.0000E+00  0.0000E+00  0.9000E-01  0.9000E-01
    -34.202  0.0000E+00  0.0000E+00  0.9000E-01  0.9000E-01
    -34.068  0.0000E+00  0.0000E+00  0.9000E-01  0.9000E-01
    -33.934  0.0000E+00  0.0000E+00  0.9000E-01  0.9000E-01
    -33.801  0.0000E+00  0.0000E+00  0.9000E-01  0.9000E-01
    -33.667  0.0000E+00  0.0000E+00  0.9000E-01  0.9000E-01
    -33.533  0.0000E+00  0.0000E+00  0.9000E-01  0.9000E-01
    -33.400  0.0000E+00  0.0000E+00  0.9000E-01  0.9000E-01
    -33.266  0.0000E+00  0.0000E+00  0.9000E-01  0.9000E-01
    -33.132  0.0000E+00  0.0000E+00  0.9000E-01  0.9000E-01
    -32.999  0.0000E+00  0.0000E+00  0.9000E-01  0.9000E-01
    -32.865  0.0000E+00  0.0000E+00  0.9000E-01  0.9000E-01
    -32.731  0.0000E+00  0.0000E+00  0.9000E-01  0.9000E-01
    -32.598  0.0000E+00  0.0000E+00  0.9000E-01  0.9000E-01
    -32.464  0.0000E+00  0.0000E+00  0.9000E-01  0.9000E-01
    -32.330  0.0000E+00  0.0000E+00  0.9000E-01  0.9000E-01
    -32.197  0.0000E+00  0.0000E+00  0.9000E-01  0.9000E-01
    -32.063  0.0000E+00  0.0000E+00  0.9000E-01  0.9000E-01
    -31.929  0.0000E+00  0.0000E+00  0.9000E-01  0.9000E-01
    -31.795  0.0000E+00  0.0000E+00  0.9000E-01  0.9000E-01
    -31.662  0.0000E+00  0.0000E+00  0.9000E-01  0.9000E-01
    -31.528  0.0000E+00  0.0000E+00  0.9000E-01  0.9000E-01
    -31.394  0.0000E+00  0.0000E+00  0.9000E-01  0.9000E-01
    -31.261  0.0000E+00  0.0000E+00  0.9000E-01  0.9000E-01
    -31.127  0.0000E+00  0.0000E+00  0.9000E-01  0.9000E-01
    -30.993  0.0000E+00  0.0000E+00  0.9000E-01  0.9000E-01
    -30.860  0.0000E+00  0.0000E+00  0.9000E-01  0.9000E-01
    -30.726  0.0000E+00  0.0000E+00  0.9000E-01  0.9000E-01
    -30.592  0.0000E+00  0.0000E+00  0.9000E-01  0.9000E-01
    -30.459  0.0000E+00  0.0000E+00  0.9000E-01  0.9000E-01
    -30.325  0.0000E+00  0.0000E+00  0.9000E-01  0.9000E-01
    -30.191  0.0000E+00  0.0000E+00  0.9000E-01  0.9000E-01
    -30.058  0.0000E+00  0.0000E+00  0.9000E-01  0.9000E-01
    -29.924  0.0000E+00  0.0000E+00  0.9000E-01  0.9000E-01
    -29.790  0.0000E+00  0.0000E+00  0.9000E-01  0.9000E-01
    -29.657  0.0000E+00  0.0000E+00  0.9000E-01  0.9000E-01
    -29.523  0.0000E+00  0.0000E+00  0.9000E-01  0.9000E-01
    -29.389  0.0000E+00  0.0000E+00  0.9000E-01  0.9000E-01
    -29.256  0.0000E+00  0.0000E+00  0.9000E-01  0.9000E-01
    -29.122  0.0000E+00  0.0000E+00  0.9000E-01  0.9000E-01
    -28.988  0.0000E+00  0.0000E+00  0.9000E-01  0.9000E-01
    -28.855  0.0000E+00  0.0000E+00  0.9000E-01  0.9000E-01
    -28.721  0.0000E+00  0.0000E+00  0.9000E-01  0.9000E-01
    -28.587  0.0000E+00  0.0000E+00  0.9000E-01  0.9000E-01
    -28.454  0.0000E+00  0.0000E+00  0.9000E-01  0.9000E-01
    -28.320  0.0000E+00  0.0000E+00  0.9000E-01  0.9000E-01
    -28.186  0.0000E+00  0.0000E+00  0.9000E-01  0.9000E-01
    -28.053  0.0000E+00  0.0000E+00  0.9000E-01  0.9000E-01
    -27.919  0.0000E+00  0.0000E+00  0.9000E-01  0.9000E-01
    -27.785  0.0000E+00  0.0000E+00  0.9000E-01  0.9000E-01
    -27.652  0.0000E+00  0.0000E+00  0.9000E-01  0.9000E-01
    -27.518  0.0000E+00  0.0000E+00  0.9000E-01  0.9000E-01
    -27.384  0.0000E+00  0.0000E+00  0.9000E-01  0.9000E-01
    -27.250  0.0000E+00  0.0000E+00  0.9000E-01  0.9000E-01
    -27.117  0.0000E+00  0.0000E+00  0.9000E-01  0.9000E-01
    -26.983  0.0000E+00  0.0000E+00  0.9000E-01  0.9000E-01
    -26.849  0.0000E+00  0.0000E+00  0.9000E-01  0.9000E-01
    -26.716  0.0000E+00  0.0000E+00  0.9000E-01  0.9000E-01
    -26.582  0.0000E+00  0.0000E+00  0.9000E-01  0.9000E-01
    -26.448  0.0000E+00  0.0000E+00  0.9000E-01  0.9000E-01
    -26.315  0.0000E+00  0.0000E+00  0.9000E-01  0.9000E-01
    -26.181  0.0000E+00  0.0000E+00  0.9000E-01  0.9000E-01
    -26.047  0.0000E+00  0.0000E+00  0.9000E-01  0.9000E-01
    -25.914  0.0000E+00  0.0000E+00  0.9000E-01  0.9000E-01
    -25.780  0.0000E+00  0.0000E+00  0.9000E-01  0.9000E-01
    -25.646  0.0000E+00  0.0000E+00  0.9000E-01  0.9000E-01
    -25.513  0.0000E+00  0.0000E+00  0.9000E-01  0.9000E-01
    -25.379  0.0000E+00  0.0000E+00  0.9000E-01  0.9000E-01
    -25.245  0.0000E+00  0.0000E+00  0.9000E-01  0.9000E-01
    -25.112  0.0000E+00  0.0000E+00  0.9000E-01  0.9000E-01
    -24.978  0.0000E+00  0.0000E+00  0.9000E-01  0.9000E-01
    -24.844  0.0000E+00  0.0000E+00  0.9000E-01  0.9000E-01
    -24.711  0.0000E+00  0.0000E+00  0.9000E-01  0.9000E-01
    -24.577  0.0000E+00  0.0000E+00  0.9000E-01  0.9000E-01
    -24.443  0.0000E+00  0.0000E+00  0.9000E-01  0.9000E-01
    -24.310  0.0000E+00  0.0000E+00  0.9000E-01  0.9000E-01
    -24.176  0.0000E+00  0.0000E+00  0.9000E-01  0.9000E-01
    -24.042  0.0000E+00  0.0000E+00  0.9000E-01  0.9000E-01
    -23.909  0.0000E+00  0.0000E+00  0.9000E-01  0.9000E-01
    -23.775  0.0000E+00  0.0000E+00  0.9000E-01  0.9000E-01
    -23.641  0.0000E+00  0.0000E+00  0.9000E-01  0.9000E-01
    -23.508  0.0000E+00  0.0000E+00  0.9000E-01  0.9000E-01
    -23.374  0.0000E+00  0.0000E+00  0.9000E-01  0.9000E-01
    -23.240  0.0000E+00  0.0000E+00  0.9000E-01  0.9000E-01
    -23.107  0.0000E+00  0.0000E+00  0.9000E-01  0.9000E-01
    -22.973  0.0000E+00  0.0000E+00  0.9000E-01  0.9000E-01
    -22.839  0.0000E+00  0.0000E+00  0.9000E-01  0.9000E-01
    -22.705  0.0000E+00  0.0000E+00  0.9000E-01  0.9000E-01
    -22.572  0.0000E+00  0.0000E+00  0.9000E-01  0.9000E-01
    -22.438  0.0000E+00  0.0000E+00  0.9000E-01  0.9000E-01
    -22.304  0.0000E+00  0.0000E+00  0.9000E-01  0.9000E-01
    -22.171  0.0000E+00  0.0000E+00  0.9000E-01  0.9000E-01
    -22.037  0.0000E+00  0.0000E+00  0.9000E-01  0.9000E-01
    -21.903  0.0000E+00  0.0000E+00  0.9000E-01  0.9000E-01
    -21.770  0.0000E+00  0.0000E+00  0.9000E-01  0.9000E-01
    -21.636  0.0000E+00  0.0000E+00  0.9000E-01  0.9000E-01
    -21.502  0.0000E+00  0.0000E+00  0.9000E-01  0.9000E-01
    -21.369  0.0000E+00  0.0000E+00  0.9000E-01  0.9000E-01
    -21.235  0.0000E+00  0.0000E+00  0.9000E-01  0.9000E-01
    -21.101  0.0000E+00  0.0000E+00  0.9000E-01  0.9000E-01
    -20.968  0.0000E+00  0.0000E+00  0.9000E-01  0.9000E-01
    -20.834  0.0000E+00  0.0000E+00  0.9000E-01  0.9000E-01
    -20.700  0.0000E+00  0.0000E+00  0.9000E-01  0.9000E-01
    -20.567  0.2047E-07  0.1549E-12  0.9000E-01  0.9000E-01
    -20.433  0.3144E-02  0.2796E-04  0.9042E-01  0.9000E-01
    -20.299  0.3247E-01  0.1918E-01  0.9476E-01  0.9257E-01
    -20.166  0.6534E-01  0.3637E-01  0.1035E+00  0.9743E-01
    -20.032  0.1775E+00  0.8340E-01  0.1272E+00  0.1086E+00
    -19.898  0.1791E+00  0.1820E+00  0.1512E+00  0.1329E+00
    -19.765  0.1281E+00  0.1236E+00  0.1683E+00  0.1494E+00
    -19.631  0.9092E-01  0.8442E-01  0.1804E+00  0.1607E+00
    -19.497  0.1328E+00  0.3499E-01  0.1982E+00  0.1654E+00
    -19.364  0.1614E+00  0.5363E-01  0.2198E+00  0.1726E+00
    -19.230  0.8105E-01  0.6660E-01  0.2306E+00  0.1815E+00
    -19.096  0.5813E-01  0.6152E-01  0.2384E+00  0.1897E+00
    -18.963  0.9544E-01  0.6771E-01  0.2511E+00  0.1987E+00
    -18.829  0.3382E-01  0.1013E+00  0.2557E+00  0.2123E+00
    -18.695  0.1029E+00  0.2803E-01  0.2694E+00  0.2160E+00
    -18.561  0.7159E-01  0.3287E-01  0.2790E+00  0.2204E+00
    -18.428  0.4603E-01  0.1003E+00  0.2851E+00  0.2338E+00
    -18.294  0.8803E-01  0.8246E-01  0.2969E+00  0.2449E+00
    -18.160  0.3265E-01  0.6055E-01  0.3013E+00  0.2529E+00
    -18.027  0.3806E-01  0.8405E-01  0.3064E+00  0.2642E+00
    -17.893  0.6478E-01  0.1278E+00  0.3150E+00  0.2813E+00
    -17.759  0.3030E-01  0.1370E+00  0.3191E+00  0.2996E+00
    -17.626  0.6803E-01  0.7633E-01  0.3282E+00  0.3098E+00
    -17.492  0.1833E+00  0.1985E+00  0.3527E+00  0.3363E+00
    -17.358  0.1230E+00  0.1365E+00  0.3691E+00  0.3546E+00
    -17.225  0.1599E+00  0.8349E-01  0.3905E+00  0.3657E+00
    -17.091  0.1433E+00  0.1964E-01  0.4096E+00  0.3684E+00
    -16.957  0.1306E+00  0.2441E-01  0.4271E+00  0.3716E+00
    -16.824  0.3332E-01  0.1472E-01  0.4315E+00  0.3736E+00
    -16.690  0.8052E-01  0.1010E+00  0.4423E+00  0.3871E+00
    -16.556  0.9922E-01  0.1047E+00  0.4556E+00  0.4011E+00
    -16.423  0.2393E-01  0.6587E-01  0.4588E+00  0.4099E+00
    -16.289  0.9731E-01  0.2072E-01  0.4718E+00  0.4127E+00
    -16.155  0.5069E-01  0.1095E+00  0.4785E+00  0.4273E+00
    -16.022  0.5139E-01  0.1014E+00  0.4854E+00  0.4408E+00
    -15.888  0.9538E-01  0.7881E-01  0.4982E+00  0.4514E+00
    -15.754  0.2696E-01  0.9691E-01  0.5018E+00  0.4643E+00
    -15.621  0.8154E-01  0.1651E+00  0.5127E+00  0.4864E+00
    -15.487  0.6274E-01  0.3974E-01  0.5211E+00  0.4917E+00
    -15.353  0.4747E-01  0.8145E-01  0.5274E+00  0.5026E+00
    -15.220  0.4533E-01  0.8257E-01  0.5335E+00  0.5136E+00
    -15.086  0.5584E-01  0.9922E-01  0.5409E+00  0.5269E+00
    -14.952  0.1091E+00  0.7948E-01  0.5555E+00  0.5375E+00
    -14.819  0.1463E+00  0.1072E+00  0.5751E+00  0.5519E+00
    -14.685  0.6922E-01  0.1579E+00  0.5843E+00  0.5730E+00
    -14.551  0.4762E-01  0.7690E-01  0.5907E+00  0.5832E+00
    -14.418  0.3598E-01  0.5435E-01  0.5955E+00  0.5905E+00
    -14.284  0.1737E-01  0.3764E-01  0.5978E+00  0.5955E+00
    -14.150  0.1626E-01  0.1870E-01  0.6000E+00  0.5980E+00
    -14.016  0.7481E-04  0.1462E-01  0.6000E+00  0.6000E+00
    -13.883  0.1352E-11  0.3253E-04  0.6000E+00  0.6000E+00
    -13.749  0.0000E+00  0.2185E-12  0.6000E+00  0.6000E+00
    -13.615  0.0000E+00  0.0000E+00  0.6000E+00  0.6000E+00
    -13.482  0.0000E+00  0.0000E+00  0.6000E+00  0.6000E+00
    -13.348  0.0000E+00  0.0000E+00  0.6000E+00  0.6000E+00
    -13.214  0.0000E+00  0.0000E+00  0.6000E+00  0.6000E+00
    -13.081  0.0000E+00  0.0000E+00  0.6000E+00  0.6000E+00
    -12.947  0.0000E+00  0.0000E+00  0.6000E+00  0.6000E+00
    -12.813  0.0000E+00  0.0000E+00  0.6000E+00  0.6000E+00
    -12.680  0.0000E+00  0.0000E+00  0.6000E+00  0.6000E+00
    -12.546  0.0000E+00  0.0000E+00  0.6000E+00  0.6000E+00
    -12.412  0.0000E+00  0.0000E+00  0.6000E+00  0.6000E+00
    -12.279  0.0000E+00  0.0000E+00  0.6000E+00  0.6000E+00
    -12.145  0.0000E+00  0.0000E+00  0.6000E+00  0.6000E+00
    -12.011  0.0000E+00  0.0000E+00  0.6000E+00  0.6000E+00
    -11.878  0.0000E+00  0.0000E+00  0.6000E+00  0.6000E+00
    -11.744  0.0000E+00  0.0000E+00  0.6000E+00  0.6000E+00
    -11.610  0.0000E+00  0.0000E+00  0.6000E+00  0.6000E+00
    -11.477  0.0000E+00  0.0000E+00  0.6000E+00  0.6000E+00
    -11.343  0.0000E+00  0.0000E+00  0.6000E+00  0.6000E+00
    -11.209  0.0000E+00  0.0000E+00  0.6000E+00  0.6000E+00
    -11.076  0.0000E+00  0.0000E+00  0.6000E+00  0.6000E+00
    -10.942  0.0000E+00  0.0000E+00  0.6000E+00  0.6000E+00
    -10.808  0.0000E+00  0.0000E+00  0.6000E+00  0.6000E+00
    -10.675  0.0000E+00  0.0000E+00  0.6000E+00  0.6000E+00
    -10.541  0.0000E+00  0.0000E+00  0.6000E+00  0.6000E+00
    -10.407  0.0000E+00  0.0000E+00  0.6000E+00  0.6000E+00
    -10.274  0.0000E+00  0.0000E+00  0.6000E+00  0.6000E+00
    -10.140  0.0000E+00  0.0000E+00  0.6000E+00  0.6000E+00
    -10.006  0.0000E+00  0.0000E+00  0.6000E+00  0.6000E+00
     -9.872  0.0000E+00  0.0000E+00  0.6000E+00  0.6000E+00
     -9.739  0.0000E+00  0.0000E+00  0.6000E+00  0.6000E+00
     -9.605  0.0000E+00  0.0000E+00  0.6000E+00  0.6000E+00
     -9.471  0.0000E+00  0.0000E+00  0.6000E+00  0.6000E+00
     -9.338  0.0000E+00  0.0000E+00  0.6000E+00  0.6000E+00
     -9.204  0.0000E+00  0.0000E+00  0.6000E+00  0.6000E+00
     -9.070  0.0000E+00  0.0000E+00  0.6000E+00  0.6000E+00
     -8.937  0.0000E+00  0.0000E+00  0.6000E+00  0.6000E+00
     -8.803  0.0000E+00  0.0000E+00  0.6000E+00  0.6000E+00
     -8.669  0.0000E+00  0.0000E+00  0.6000E+00  0.6000E+00
     -8.536  0.0000E+00  0.0000E+00  0.6000E+00  0.6000E+00
     -8.402  0.0000E+00  0.0000E+00  0.6000E+00  0.6000E+00
     -8.268  0.0000E+00  0.0000E+00  0.6000E+00  0.6000E+00
     -8.135  0.0000E+00  0.0000E+00  0.6000E+00  0.6000E+00
     -8.001  0.0000E+00  0.0000E+00  0.6000E+00  0.6000E+00
     -7.867  0.0000E+00  0.0000E+00  0.6000E+00  0.6000E+00
     -7.734  0.0000E+00  0.0000E+00  0.6000E+00  0.6000E+00
     -7.600  0.0000E+00  0.0000E+00  0.6000E+00  0.6000E+00
     -7.466  0.0000E+00  0.0000E+00  0.6000E+00  0.6000E+00
     -7.333  0.0000E+00  0.0000E+00  0.6000E+00  0.6000E+00
     -7.199  0.0000E+00  0.0000E+00  0.6000E+00  0.6000E+00
     -7.065  0.0000E+00  0.0000E+00  0.6000E+00  0.6000E+00
     -6.932  0.0000E+00  0.0000E+00  0.6000E+00  0.6000E+00
     -6.798  0.0000E+00  0.0000E+00  0.6000E+00  0.6000E+00
     -6.664  0.0000E+00  0.0000E+00  0.6000E+00  0.6000E+00
     -6.531  0.0000E+00  0.0000E+00  0.6000E+00  0.6000E+00
     -6.397  0.0000E+00  0.0000E+00  0.6000E+00  0.6000E+00
     -6.263  0.0000E+00  0.0000E+00  0.6000E+00  0.6000E+00
     -6.130  0.0000E+00  0.0000E+00  0.6000E+00  0.6000E+00
     -5.996  0.0000E+00  0.0000E+00  0.6000E+00  0.6000E+00
     -5.862  0.0000E+00  0.0000E+00  0.6000E+00  0.6000E+00
     -5.729  0.0000E+00  0.0000E+00  0.6000E+00  0.6000E+00
     -5.595  0.6114E-12  0.0000E+00  0.6000E+00  0.6000E+00
     -5.461  0.5245E-04  0.4828E-13  0.6000E+00  0.6000E+00
     -5.327  0.1909E-01  0.8952E-05  0.6026E+00  0.6000E+00
     -5.194  0.3307E-01  0.6790E-02  0.6070E+00  0.6009E+00
     -5.060  0.1011E+00  0.4160E-01  0.6205E+00  0.6065E+00
     -4.926  0.1620E+00  0.4612E-01  0.6421E+00  0.6126E+00
     -4.793  0.1763E+00  0.8304E-01  0.6657E+00  0.6237E+00
     -4.659  0.3558E+00  0.7037E-01  0.7133E+00  0.6331E+00
     -4.525  0.2816E+00  0.1154E+00  0.7509E+00  0.6486E+00
     -4.392  0.1392E+00  0.1742E+00  0.7695E+00  0.6719E+00
     -4.258  0.1865E+00  0.1983E+00  0.7945E+00  0.6984E+00
     -4.124  0.2210E+00  0.1842E+00  0.8240E+00  0.7230E+00
     -3.991  0.2271E+00  0.1173E+00  0.8544E+00  0.7387E+00
     -3.857  0.2036E+00  0.8127E-01  0.8816E+00  0.7495E+00
     -3.723  0.1555E+00  0.1757E+00  0.9024E+00  0.7730E+00
     -3.590  0.1907E+00  0.1391E+00  0.9279E+00  0.7916E+00
     -3.456  0.1752E+00  0.1817E+00  0.9513E+00  0.8159E+00
     -3.322  0.2001E+00  0.1224E+00  0.9780E+00  0.8323E+00
     -3.189  0.1931E+00  0.1080E+00  0.1004E+01  0.8467E+00
     -3.055  0.1041E+00  0.1106E+00  0.1018E+01  0.8615E+00
     -2.921  0.1685E+00  0.1602E+00  0.1040E+01  0.8829E+00
     -2.788  0.1866E+00  0.1598E+00  0.1065E+01  0.9043E+00
     -2.654  0.2472E+00  0.1901E+00  0.1098E+01  0.9297E+00
     -2.520  0.2178E+00  0.3050E+00  0.1127E+01  0.9704E+00
     -2.387  0.2600E+00  0.2573E+00  0.1162E+01  0.1005E+01
     -2.253  0.2820E+00  0.1722E+00  0.1200E+01  0.1028E+01
     -2.119  0.3136E+00  0.2968E+00  0.1242E+01  0.1068E+01
     -1.986  0.1983E+00  0.2736E+00  0.1268E+01  0.1104E+01
     -1.852  0.2563E+00  0.2613E+00  0.1303E+01  0.1139E+01
     -1.718  0.1288E+00  0.2340E+00  0.1320E+01  0.1170E+01
     -1.585  0.1800E-02  0.1872E+00  0.1320E+01  0.1195E+01
     -1.451  0.1173E-08  0.3481E-01  0.1320E+01  0.1200E+01
     -1.317  0.0000E+00  0.3956E-04  0.1320E+01  0.1200E+01
     -1.183  0.0000E+00  0.2492E-12  0.1320E+01  0.1200E+01
     -1.050  0.0000E+00  0.3891E-06  0.1320E+01  0.1200E+01
     -0.916  0.0000E+00  0.1510E-01  0.1320E+01  0.1202E+01
     -0.782  0.0000E+00  0.3907E+00  0.1320E+01  0.1254E+01
     -0.649  0.0000E+00  0.2882E+00  0.1320E+01  0.1293E+01
     -0.515  0.0000E+00  0.2010E+00  0.1320E+01  0.1320E+01
     -0.381  0.0000E+00  0.2661E-02  0.1320E+01  0.1320E+01
     -0.248  0.0000E+00  0.1220E-08  0.1320E+01  0.1320E+01
     -0.114  0.0000E+00  0.0000E+00  0.1320E+01  0.1320E+01
      0.020  0.0000E+00  0.0000E+00  0.1320E+01  0.1320E+01
      0.153  0.0000E+00  0.0000E+00  0.1320E+01  0.1320E+01
      0.287  0.0000E+00  0.0000E+00  0.1320E+01  0.1320E+01
      0.421  0.0000E+00  0.0000E+00  0.1320E+01  0.1320E+01
      0.554  0.8201E-08  0.1235E-07  0.1320E+01  0.1320E+01
      0.688  0.3775E-02  0.5036E-02  0.1321E+01  0.1321E+01
      0.822  0.1501E+00  0.2111E+00  0.1341E+01  0.1349E+01
      0.955  0.5277E+00  0.6062E+00  0.1411E+01  0.1430E+01
      1.089  0.1047E+01  0.1057E+01  0.1551E+01  0.1571E+01
      1.223  0.1145E+01  0.1086E+01  0.1704E+01  0.1716E+01
      1.356  0.4172E+00  0.3251E+00  0.1760E+01  0.1760E+01
      1.490  0.7960E-03  0.3799E-03  0.1760E+01  0.1760E+01
      1.624  0.1653E-10  0.4593E-11  0.1760E+01  0.1760E+01
      1.757  0.0000E+00  0.0000E+00  0.1760E+01  0.1760E+01
      1.891  0.0000E+00  0.0000E+00  0.1760E+01  0.1760E+01
      2.025  0.0000E+00  0.0000E+00  0.1760E+01  0.1760E+01
      2.158  0.0000E+00  0.0000E+00  0.1760E+01  0.1760E+01
      2.292  0.0000E+00  0.0000E+00  0.1760E+01  0.1760E+01
      2.426  0.0000E+00  0.0000E+00  0.1760E+01  0.1760E+01
      2.559  0.0000E+00  0.0000E+00  0.1760E+01  0.1760E+01
      2.693  0.0000E+00  0.0000E+00  0.1760E+01  0.1760E+01
      2.827  0.0000E+00  0.0000E+00  0.1760E+01  0.1760E+01
      2.960  0.0000E+00  0.0000E+00  0.1760E+01  0.1760E+01
      3.094  0.0000E+00  0.0000E+00  0.1760E+01  0.1760E+01
