 vasp.6.4.3 19Mar24 (build Mar 01 2025 17:53:50) complex                        
  
 executed on              Shaheen date 2025.04.20  05:04:38
 running  192 mpi-ranks, on    1 nodes
 distrk:  each k-point on  192 cores,    1 groups
 distr:  one band on NCORE=   4 cores,   48 groups


--------------------------------------------------------------------------------------------------------


 INCAR:
   ISTART = 1            (Read existing wavefunction, if there)
   LREAL = .FALSE.       (Projection operators: automatic)
   ENCUT = 520        (Cut-off energy for plane wave basis set, in eV)
   PREC = Accurate   (Precision level: Normal or Accurate, set Accurate when perform structure lattice relaxation calculation)
   LWAVE = .FALSE.        (Write WAVECAR or not)
   LCHARG = .FALSE.        (Write CHGCAR or not)
   ADDGRID = .TRUE.        (Increase grid, helps GGA convergence)
   LASPH = .TRUE.        (Give more accurate total energies and band structure calculations)
   PREC = Accurate      (Accurate strictly avoids any aliasing or wrap around errors)
   ISMEAR = 0            (Gaussian smearing, metals:1)
   SIGMA = 0.05         (Smearing value in eV, metals:0.2)
   NELM = 90           (Max electronic SCF steps)
   NELMIN = 6            (Min electronic SCF steps)
   EDIFF = 1E-06        (SCF energy convergence, in eV)
   NSW = 300          (Max ionic steps)
   IBRION = 2            (Algorithm: 0-MD, 1-Quasi-New, 2-CG)
   ISIF = 2            (Stress/relaxation: 2-Ions, 3-Shape/Ions/V, 4-Shape/Ions)
   EDIFFG = -2E-02        (Ionic convergence, eV/AA)
   NCORE = 4
   ISPIN = 2
   MAGMOM = 27*1.0 72*0.6
   LDAU = .TRUE.        (Activate DFT+U)
   LDAUTYPE = 2            (Dudarev, only U-J matters)
   LDAUL = 3 -1         (Orbitals for each species)
   LDAUU = 5.0  0         (U for each species)
   LDAUJ = 0  0         (J for each species)
   LMAXMIX = 6            (Mixing cut-off, 4-d, 6-f)

 POTCAR:    PAW_PBE Ce 23Dec2003                  
 POTCAR:    PAW_PBE O 08Apr2002                   
 -----------------------------------------------------------------------------
|                                                                             |
|           W    W    AA    RRRRR   N    N  II  N    N   GGGG   !!!           |
|           W    W   A  A   R    R  NN   N  II  NN   N  G    G  !!!           |
|           W    W  A    A  R    R  N N  N  II  N N  N  G       !!!           |
|           W WW W  AAAAAA  RRRRR   N  N N  II  N  N N  G  GGG   !            |
|           WW  WW  A    A  R   R   N   NN  II  N   NN  G    G                |
|           W    W  A    A  R    R  N    N  II  N    N   GGGG   !!!           |
|                                                                             |
|     For optimal performance we recommend to set                             |
|       NCORE = 2 up to number-of-cores-per-socket                            |
|     NCORE specifies how many cores store one orbital (NPAR=cpu/NCORE).      |
|     This setting can greatly improve the performance of VASP for DFT.       |
|     The default, NCORE=1 might be grossly inefficient on modern             |
|     multi-core architectures or massively parallel machines. Do your        |
|     own testing! More info at https://www.vasp.at/wiki/index.php/NCORE      |
|     Unfortunately you need to use the default for GW and RPA                |
|     calculations (for HF NCORE is supported but not extensively tested      |
|     yet).                                                                   |
|                                                                             |
 -----------------------------------------------------------------------------

 POTCAR:    PAW_PBE Ce 23Dec2003                  
   SHA256 =  00bd3101dba980d69718c826e9aff48526de61f93249f80fb0d1cde9afca69b7 Ce/POTCAR             
   COPYR  = (c) Copyright 23Dec2003 Georg Kresse                                                    
   COPYR  = This file is part of the software VASP. Any use, copying, and all other rights are regul
   COPYR  = If you do not have a valid VASP license, you may not use, copy or distribute this file. 
   VRHFIN =Ce : [core= Kr 4d10]                                                                     
   LEXCH  = PE                                                                                      
   EATOM  =  1063.0861 eV,   78.1346 Ry                                                             
                                                                                                    
   TITEL  = PAW_PBE Ce 23Dec2003                                                                    
   LULTRA =        F    use ultrasoft PP ?                                                          
   IUNSCR =        1    unscreen: 0-lin 1-nonlin 2-no                                               
   RPACOR =    1.800    partial core radius                                                         
   POMASS =  140.115; ZVAL   =   12.000    mass and valenz                                          
   RCORE  =    2.700    outmost cutoff radius                                                       
   RWIGS  =    2.500; RWIGS  =    1.323    wigner-seitz radius (au A)                               
   ENMAX  =  273.042; ENMIN  =  204.781 eV                                                          
   RCLOC  =    1.810    cutoff for local pot                                                        
   LCOR   =        T    correct aug charges                                                         
   LPAW   =        T    paw PP                                                                      
   EAUG   =  580.196                                                                                
   DEXC   =    0.000                                                                                
   RMAX   =    2.749    core radius for proj-oper                                                   
   RAUG   =    1.300    factor for augmentation sphere                                              
   RDEP   =    2.810    radius for radial grids                                                     
   RDEPT  =    2.162    core radius for aug-charge                                                  
                                                                                                    
   Atomic configuration                                                                             
   14 entries                                                                                       
     n  l   j            E        occ.                                                              
     1  0  0.50    -40258.9816   2.0000                                                             
     2  0  0.50     -6445.4884   2.0000                                                             
     2  1  1.50     -5771.7470   6.0000                                                             
     3  0  0.50     -1387.9739   2.0000                                                             
     3  1  1.50     -1173.8158   6.0000                                                             
     3  2  2.50      -869.9108  10.0000                                                             
     4  0  0.50      -280.8706   2.0000                                                             
     4  1  1.50      -210.9815   6.0000                                                             
     4  2  2.50      -110.4558  10.0000                                                             
     5  0  0.50       -40.5819   2.0000                                                             
     6  0  0.50        -3.7444   2.0000                                                             
     5  1  1.50       -23.2188   6.0000                                                             
     5  2  2.50        -3.0598   1.0000                                                             
     4  3  2.50        -5.3970   1.0000                                                             
   Description                                                                                      
     l       E           TYP  RCUT    TYP  RCUT                                                     
     0    -40.5819164     23  1.500                                                                 
     0     -3.7443793     23  2.300                                                                 
     1    -23.2188445     23  2.000                                                                 
     1     40.8174780     23  2.300                                                                 
     2     -3.0597556     23  2.500                                                                 
     2     13.6058260     23  2.500                                                                 
     3     -5.3970469     23  2.700                                                                 
     3     -5.8505052     23  2.700                                                                 
  local pseudopotential read in
  partial core-charges read in
  partial kinetic energy density read in
  atomic valenz-charges read in
  non local Contribution for L=           0  read in
    real space projection operators read in
  non local Contribution for L=           0  read in
    real space projection operators read in
  non local Contribution for L=           1  read in
    real space projection operators read in
  non local Contribution for L=           1  read in
    real space projection operators read in
  non local Contribution for L=           2  read in
    real space projection operators read in
  non local Contribution for L=           2  read in
    real space projection operators read in
  non local Contribution for L=           3  read in
    real space projection operators read in
  non local Contribution for L=           3  read in
    real space projection operators read in
    PAW grid and wavefunctions read in
 
   number of l-projection  operators is LMAX  =           8
   number of lm-projection operators is LMMAX =          32
 
 POTCAR:    PAW_PBE O 08Apr2002                   
   SHA256 =  818f92134a0a090dccd8ba1447fa70422a3b330e708bb4f08108d8ae51209ddf O/POTCAR              
   COPYR  = (c) Copyright 08Apr2002 Georg Kresse                                                    
   COPYR  = This file is part of the software VASP. Any use, copying, and all other rights are regul
   COPYR  = If you do not have a valid VASP license, you may not use, copy or distribute this file. 
   VRHFIN =O: s2p4                                                                                  
   LEXCH  = PE                                                                                      
   EATOM  =   432.3788 eV,   31.7789 Ry                                                             
                                                                                                    
   TITEL  = PAW_PBE O 08Apr2002                                                                     
   LULTRA =        F    use ultrasoft PP ?                                                          
   IUNSCR =        1    unscreen: 0-lin 1-nonlin 2-no                                               
   RPACOR =    1.200    partial core radius                                                         
   POMASS =   16.000; ZVAL   =    6.000    mass and valenz                                          
   RCORE  =    1.520    outmost cutoff radius                                                       
   RWIGS  =    1.550; RWIGS  =    0.820    wigner-seitz radius (au A)                               
   ENMAX  =  400.000; ENMIN  =  300.000 eV                                                          
   ICORE  =        2    local potential                                                             
   LCOR   =        T    correct aug charges                                                         
   LPAW   =        T    paw PP                                                                      
   EAUG   =  605.392                                                                                
   DEXC   =    0.000                                                                                
   RMAX   =    1.553    core radius for proj-oper                                                   
   RAUG   =    1.300    factor for augmentation sphere                                              
   RDEP   =    1.550    radius for radial grids                                                     
   RDEPT  =    1.329    core radius for aug-charge                                                  
                                                                                                    
   Atomic configuration                                                                             
    4 entries                                                                                       
     n  l   j            E        occ.                                                              
     1  0  0.50      -514.6923   2.0000                                                             
     2  0  0.50       -23.9615   2.0000                                                             
     2  1  0.50        -9.0305   4.0000                                                             
     3  2  1.50        -9.5241   0.0000                                                             
   Description                                                                                      
     l       E           TYP  RCUT    TYP  RCUT                                                     
     0    -23.9615318     23  1.200                                                                 
     0     -9.5240782     23  1.200                                                                 
     1     -9.0304911     23  1.520                                                                 
     1      8.1634956     23  1.520                                                                 
     2     -9.5240782      7  1.500                                                                 
  local pseudopotential read in
  partial core-charges read in
  partial kinetic energy density read in
  kinetic energy density of atom read in
  atomic valenz-charges read in
  non local Contribution for L=           0  read in
    real space projection operators read in
  non local Contribution for L=           0  read in
    real space projection operators read in
  non local Contribution for L=           1  read in
    real space projection operators read in
  non local Contribution for L=           1  read in
    real space projection operators read in
    PAW grid and wavefunctions read in
 
   number of l-projection  operators is LMAX  =           4
   number of lm-projection operators is LMMAX =           8
 
 -----------------------------------------------------------------------------
|                                                                             |
|               ----> ADVICE to this user running VASP <----                  |
|                                                                             |
|     You have a (more or less) 'large supercell' and for larger cells it     |
|     might be more efficient to use real-space projection operators.         |
|     Therefore, try LREAL= Auto in the INCAR file.                           |
|     Mind: For very accurate calculation, you might also keep the            |
|     reciprocal projection scheme (i.e. LREAL=.FALSE.).                      |
|                                                                             |
 -----------------------------------------------------------------------------

  PAW_PBE Ce 23Dec2003                  :
 energy of atom  1       EATOM=-1063.0861
 kinetic energy error for atom=    0.0133 (will be added to EATOM!!)
  PAW_PBE O 08Apr2002                   :
 energy of atom  2       EATOM= -432.3788
 kinetic energy error for atom=    0.0208 (will be added to EATOM!!)
 
 
 POSCAR: Generated by VASPKIT code
  positions in direct lattice
  No initial velocities read in


 exchange-correlation table for PE
   RHO(1)=    0.500       N(1)  =     2000
   RHO(2)=  100.500       N(2)  =     4000
 


--------------------------------------------------------------------------------------------------------


 ion  position               nearest neighbor table
   1  0.000  0.000  0.460-  81 2.37  33 2.37  47 2.37  31 2.37  95 2.37  97 2.37  29 2.37  34 2.37

   2  0.222  0.111  0.310-  78 2.37  42 2.37  38 2.37  66 2.37  34 2.37  30 2.37  35 2.37  31 2.37

   3  0.111  0.222  0.160-  52 2.37  28 2.37  59 2.37  60 2.37  51 2.37  35 2.37  32 2.37  30 2.37

   4  0.333  0.000  0.460-  31 2.37  41 2.37  79 2.37  81 2.37  89 2.37  42 2.37  37 2.37  39 2.37

   5  0.556  0.111  0.310-  46 2.37  50 2.37  74 2.37  86 2.37  43 2.37  39 2.37  38 2.37  42 2.37

   6  0.444  0.222  0.160-  36 2.37  60 2.37  35 2.37  67 2.37  38 2.37  40 2.37  43 2.37  68 2.37

   7  0.667  0.000  0.460-  97 2.37  47 2.37  49 2.37  87 2.37  39 2.37  45 2.37  50 2.37  89 2.37

   8  0.889  0.111  0.310-  94 2.37  50 2.37  46 2.37  30 2.37  58 2.37  34 2.37  51 2.37  47 2.37

   9  0.778  0.222  0.160-  68 2.37  51 2.37  52 2.37  44 2.37  75 2.37  43 2.37  46 2.37  48 2.37

  10  0.000  0.333  0.460-  33 2.37  47 2.37  49 2.37  55 2.37  71 2.37  58 2.37  53 2.37  57 2.37

  11  0.222  0.444  0.310-  30 2.37  66 2.37  58 2.37  62 2.37  59 2.37  55 2.37  54 2.37  90 2.37

  12  0.111  0.556  0.160-  76 2.37  83 2.37  84 2.37  75 2.37  54 2.37  56 2.37  52 2.37  59 2.37

  13  0.333  0.333  0.460-  31 2.37  33 2.37  41 2.37  55 2.37  61 2.37  66 2.37  65 2.37  63 2.37

  14  0.556  0.444  0.310-  74 2.37  38 2.37  70 2.37  67 2.37  63 2.37  98 2.37  66 2.37  62 2.37

  15  0.444  0.556  0.160-  84 2.37  91 2.37  59 2.37  62 2.37  64 2.37  92 2.37  60 2.37  67 2.37

  16  0.667  0.333  0.460-  49 2.37  71 2.37  39 2.37  63 2.37  69 2.37  74 2.37  73 2.37  41 2.37

  17  0.889  0.444  0.310-  74 2.37  46 2.37  58 2.37  54 2.37  75 2.37  71 2.37  70 2.37  82 2.37

  18  0.778  0.556  0.160-  99 2.37  76 2.37  92 2.37  67 2.37  72 2.37  70 2.37  75 2.37  68 2.37

  19  0.000  0.667  0.460-  57 2.37  79 2.37  81 2.37  95 2.37  73 2.37  82 2.37  77 2.37  71 2.37

  20  0.222  0.778  0.310-  90 2.37  54 2.37  86 2.37  42 2.37  82 2.37  78 2.37  83 2.37  79 2.37

  21  0.111  0.889  0.160-  28 2.37  35 2.37  36 2.37  76 2.37  99 2.37  83 2.37  78 2.37  80 2.37

  22  0.333  0.667  0.460-  79 2.37  89 2.37  57 2.37  65 2.37  85 2.37  90 2.37  55 2.37  87 2.37

  23  0.556  0.778  0.310-  98 2.37  94 2.37  50 2.37  62 2.37  91 2.37  87 2.37  86 2.37  90 2.37

  24  0.444  0.889  0.160-  36 2.37  84 2.37  83 2.37  43 2.37  86 2.37  88 2.37  91 2.37  44 2.37

  25  0.667  0.667  0.460-  87 2.37  95 2.37  97 2.37  73 2.37  93 2.37  98 2.37  65 2.37  63 2.37

  26  0.889  0.778  0.310-  70 2.37  94 2.37  78 2.37  82 2.37  34 2.37  98 2.37  99 2.37  95 2.37

  27  0.778  0.889  0.160-  44 2.37  51 2.37  28 2.37  92 2.37  99 2.37  91 2.37  96 2.37  94 2.37

  28  0.000  0.000  0.123-  21 2.37   3 2.37  27 2.37
  29  0.000  0.000  0.572-   1 2.37
  30  0.111  0.222  0.272-  11 2.37   8 2.37   2 2.37   3 2.37
  31  0.222  0.111  0.422-   4 2.37   1 2.37  13 2.37   2 2.37
  32  0.111  0.222  0.048-   3 2.37
  33  0.111  0.222  0.497-  10 2.37   1 2.37  13 2.37
  34  0.000  0.000  0.347-   8 2.37  26 2.37   2 2.37   1 2.37
  35  0.222  0.111  0.197-  21 2.37   6 2.37   3 2.37   2 2.37
  36  0.333  0.000  0.123-   6 2.37  21 2.37  24 2.37
  37  0.333  0.000  0.572-   4 2.37
  38  0.444  0.222  0.272-   2 2.37  14 2.37   6 2.37   5 2.37
  39  0.556  0.111  0.422-   7 2.37  16 2.37   5 2.37   4 2.37
  40  0.444  0.222  0.048-   6 2.37
  41  0.444  0.222  0.497-   4 2.37  13 2.37  16 2.37
  42  0.333  0.000  0.347-   2 2.37  20 2.37   4 2.37   5 2.37
  43  0.556  0.111  0.197-   9 2.37  24 2.37   5 2.37   6 2.37
  44  0.667  0.000  0.123-  27 2.37   9 2.37  24 2.37
  45  0.667  0.000  0.572-   7 2.37
  46  0.778  0.222  0.272-   8 2.37  17 2.37   5 2.37   9 2.37
  47  0.889  0.111  0.422-   7 2.37   1 2.37  10 2.37   8 2.37
  48  0.778  0.222  0.048-   9 2.37
  49  0.778  0.222  0.497-  16 2.37  10 2.37   7 2.37
  50  0.667  0.000  0.347-   8 2.37   5 2.37  23 2.37   7 2.37
  51  0.889  0.111  0.197-  27 2.37   9 2.37   3 2.37   8 2.37
  52  0.000  0.333  0.123-   3 2.37   9 2.37  12 2.37
  53  0.000  0.333  0.572-  10 2.37
  54  0.111  0.556  0.272-  20 2.37  17 2.37  12 2.37  11 2.37
  55  0.222  0.444  0.422-  13 2.37  10 2.37  11 2.37  22 2.37
  56  0.111  0.556  0.048-  12 2.37
  57  0.111  0.556  0.497-  19 2.37  22 2.37  10 2.37
  58  0.000  0.333  0.347-   8 2.37  11 2.37  17 2.37  10 2.37
  59  0.222  0.444  0.197-   3 2.37  15 2.37  11 2.37  12 2.37
  60  0.333  0.333  0.123-   3 2.37   6 2.37  15 2.37
  61  0.333  0.333  0.572-  13 2.37
  62  0.444  0.556  0.272-  23 2.37  11 2.37  15 2.37  14 2.37
  63  0.556  0.444  0.422-  16 2.37  14 2.37  25 2.37  13 2.37
  64  0.444  0.556  0.048-  15 2.37
  65  0.444  0.556  0.497-  22 2.37  25 2.37  13 2.37
  66  0.333  0.333  0.347-   2 2.37  11 2.37  13 2.37  14 2.37
  67  0.556  0.444  0.197-   6 2.37  18 2.37  14 2.37  15 2.37
  68  0.667  0.333  0.123-   9 2.37  18 2.37   6 2.37
  69  0.667  0.333  0.572-  16 2.37
  70  0.778  0.556  0.272-  26 2.37  14 2.37  18 2.37  17 2.37
  71  0.889  0.444  0.422-  16 2.37  10 2.37  17 2.37  19 2.37
  72  0.778  0.556  0.048-  18 2.37
  73  0.778  0.556  0.497-  19 2.37  25 2.37  16 2.37
  74  0.667  0.333  0.347-  17 2.37   5 2.37  14 2.37  16 2.37
  75  0.889  0.444  0.197-   9 2.37  12 2.37  17 2.37  18 2.37
  76  0.000  0.667  0.123-  12 2.37  21 2.37  18 2.37
  77  0.000  0.667  0.572-  19 2.37
  78  0.111  0.889  0.272-   2 2.37  26 2.37  20 2.37  21 2.37
  79  0.222  0.778  0.422-  22 2.37  19 2.37   4 2.37  20 2.37
  80  0.111  0.889  0.048-  21 2.37
  81  0.111  0.889  0.497-   1 2.37   4 2.37  19 2.37
  82  0.000  0.667  0.347-  26 2.37  20 2.37  19 2.37  17 2.37
  83  0.222  0.778  0.197-  12 2.37  24 2.37  21 2.37  20 2.37
  84  0.333  0.667  0.123-  24 2.37  12 2.37  15 2.37
  85  0.333  0.667  0.572-  22 2.37
  86  0.444  0.889  0.272-  20 2.37   5 2.37  24 2.37  23 2.37
  87  0.556  0.778  0.422-  25 2.37   7 2.37  23 2.37  22 2.37
  88  0.444  0.889  0.048-  24 2.37
  89  0.444  0.889  0.497-   4 2.37  22 2.37   7 2.37
  90  0.333  0.667  0.347-  20 2.37  22 2.37  11 2.37  23 2.37
  91  0.556  0.778  0.197-  27 2.37  15 2.37  23 2.37  24 2.37
  92  0.667  0.667  0.123-  27 2.37  18 2.37  15 2.37
  93  0.667  0.667  0.572-  25 2.37
  94  0.778  0.889  0.272-   8 2.37  26 2.37  23 2.37  27 2.37
  95  0.889  0.778  0.422-   1 2.37  19 2.37  25 2.37  26 2.37
  96  0.778  0.889  0.048-  27 2.37
  97  0.778  0.889  0.497-   7 2.37   1 2.37  25 2.37
  98  0.667  0.667  0.347-  23 2.37  26 2.37  25 2.37  14 2.37
  99  0.889  0.778  0.197-  18 2.37  27 2.37  21 2.37  26 2.37
 
  LATTYP: Found a hexagonal cell.
 ALAT       =    11.5982000000
 C/A-ratio  =     1.8147816040
  
  Lattice vectors:
  
 A1 = (  11.5982000000,   0.0000000000,   0.0000000000)
 A2 = (  -5.7991000000,  10.0443358382,   0.0000000000)
 A3 = (   0.0000000000,   0.0000000000,  21.0482000000)


Analysis of symmetry for initial positions (statically):
=====================================================================
 Subroutine PRICEL returns:
 Original cell was already a primitive cell.
 

 Routine SETGRP: Setting up the symmetry group for a 
 hexagonal supercell.


 Subroutine GETGRP returns: Found  2 space group operations
 (whereof  2 operations were pure point group operations)
 out of a pool of 24 trial point group operations.


The static configuration has the point symmetry C_1h.


Analysis of symmetry for dynamics (positions and initial velocities):
=====================================================================
 Subroutine PRICEL returns:
 Original cell was already a primitive cell.
 

 Routine SETGRP: Setting up the symmetry group for a 
 hexagonal supercell.


 Subroutine GETGRP returns: Found  2 space group operations
 (whereof  2 operations were pure point group operations)
 out of a pool of 24 trial point group operations.


The dynamic configuration has the point symmetry C_1h.


Analysis of constrained symmetry for selective dynamics:
=====================================================================
 Subroutine PRICEL returns:
 Original cell was already a primitive cell.
 

 Routine SETGRP: Setting up the symmetry group for a 
 hexagonal supercell.


 Subroutine GETGRP returns: Found  2 space group operations
 (whereof  2 operations were pure point group operations)
 out of a pool of 24 trial point group operations.


The constrained configuration has the point symmetry C_1h.


Analysis of structural, dynamic, and magnetic symmetry:
=====================================================================
 Subroutine PRICEL returns:
 Original cell was already a primitive cell.
 

 Routine SETGRP: Setting up the symmetry group for a 
 hexagonal supercell.


 Subroutine GETGRP returns: Found  2 space group operations
 (whereof  2 operations were pure point group operations)
 out of a pool of 24 trial point group operations.


The overall configuration has the point symmetry C_1h.


 Subroutine INISYM returns: Found  2 space group operations
 (whereof  2 operations are pure point group operations),
 and found     1 'primitive' translations


----------------------------------------------------------------------------------------

                                     Primitive cell                                     

  volume of cell :    2452.0357

  direct lattice vectors                    reciprocal lattice vectors
    11.598200000  0.000000000  0.000000000     0.086220276  0.049779299  0.000000000
    -5.799100000 10.044335838  0.000000000     0.000000000  0.099558599  0.000000000
     0.000000000  0.000000000 21.048200000     0.000000000  0.000000000  0.047510001

  length of vectors
    11.598200000 11.598200000 21.048200000     0.099558599  0.099558599  0.047510001

  position of ions in fractional coordinates (direct lattice)
     0.000000000  0.000000000  0.459930000
     0.222220000  0.111110000  0.309960000
     0.111110000  0.222220000  0.159990000
     0.333330000  0.000000000  0.459930000
     0.555560000  0.111110000  0.309960000
     0.444440000  0.222220000  0.159990000
     0.666670000  0.000000000  0.459930000
     0.888890000  0.111110000  0.309960000
     0.777780000  0.222220000  0.159990000
     1.000000000  0.333330000  0.459930000
     0.222220000  0.444440000  0.309960000
     0.111110000  0.555560000  0.159990000
     0.333330000  0.333330000  0.459930000
     0.555560000  0.444440000  0.309960000
     0.444440000  0.555560000  0.159990000
     0.666670000  0.333330000  0.459930000
     0.888890000  0.444440000  0.309960000
     0.777780000  0.555560000  0.159990000
     1.000000000  0.666670000  0.459930000
     0.222220000  0.777780000  0.309960000
     0.111110000  0.888890000  0.159990000
     0.333330000  0.666670000  0.459930000
     0.555560000  0.777780000  0.309960000
     0.444440000  0.888890000  0.159990000
     0.666670000  0.666670000  0.459930000
     0.888890000  0.777780000  0.309960000
     0.777780000  0.888890000  0.159990000
     0.000000000  0.000000000  0.122500000
     0.000000000  0.000000000  0.572410000
     0.111110000  0.222220000  0.272470000
     0.222220000  0.111110000  0.422440000
     0.111110000  0.222220000  0.047510000
     0.111110000  0.222220000  0.497420000
     0.000000000  0.000000000  0.347450000
     0.222220000  0.111110000  0.197480000
     0.333330000  0.000000000  0.122500000
     0.333330000  0.000000000  0.572410000
     0.444440000  0.222220000  0.272470000
     0.555560000  0.111110000  0.422440000
     0.444440000  0.222220000  0.047510000
     0.444440000  0.222220000  0.497420000
     0.333330000  0.000000000  0.347450000
     0.555560000  0.111110000  0.197480000
     0.666670000  0.000000000  0.122500000
     0.666670000  0.000000000  0.572410000
     0.777780000  0.222220000  0.272470000
     0.888890000  0.111110000  0.422440000
     0.777780000  0.222220000  0.047510000
     0.777780000  0.222220000  0.497420000
     0.666670000  0.000000000  0.347450000
     0.888890000  0.111110000  0.197480000
     1.000000000  0.333330000  0.122500000
     1.000000000  0.333330000  0.572410000
     0.111110000  0.555560000  0.272470000
     0.222220000  0.444440000  0.422440000
     0.111110000  0.555560000  0.047510000
     0.111110000  0.555560000  0.497420000
     1.000000000  0.333330000  0.347450000
     0.222220000  0.444440000  0.197480000
     0.333330000  0.333330000  0.122500000
     0.333330000  0.333330000  0.572410000
     0.444440000  0.555560000  0.272470000
     0.555560000  0.444440000  0.422440000
     0.444440000  0.555560000  0.047510000
     0.444440000  0.555560000  0.497420000
     0.333330000  0.333330000  0.347450000
     0.555560000  0.444440000  0.197480000
     0.666670000  0.333330000  0.122500000
     0.666670000  0.333330000  0.572410000
     0.777780000  0.555560000  0.272470000
     0.888890000  0.444440000  0.422440000
     0.777780000  0.555560000  0.047510000
     0.777780000  0.555560000  0.497420000
     0.666670000  0.333330000  0.347450000
     0.888890000  0.444440000  0.197480000
     1.000000000  0.666670000  0.122500000
     1.000000000  0.666670000  0.572410000
     0.111110000  0.888890000  0.272470000
     0.222220000  0.777780000  0.422440000
     0.111110000  0.888890000  0.047510000
     0.111110000  0.888890000  0.497420000
     1.000000000  0.666670000  0.347450000
     0.222220000  0.777780000  0.197480000
     0.333330000  0.666670000  0.122500000
     0.333330000  0.666670000  0.572410000
     0.444440000  0.888890000  0.272470000
     0.555560000  0.777780000  0.422440000
     0.444440000  0.888890000  0.047510000
     0.444440000  0.888890000  0.497420000
     0.333330000  0.666670000  0.347450000
     0.555560000  0.777780000  0.197480000
     0.666670000  0.666670000  0.122500000
     0.666670000  0.666670000  0.572410000
     0.777780000  0.888890000  0.272470000
     0.888890000  0.777780000  0.422440000
     0.777780000  0.888890000  0.047510000
     0.777780000  0.888890000  0.497420000
     0.666670000  0.666670000  0.347450000
     0.888890000  0.777780000  0.197480000

  ion indices of the primitive-cell ions
   primitive index   ion index
                 1           1
                 2           2
                 3           3
                 4           4
                 5           5
                 6           6
                 7           7
                 8           8
                 9           9
                10          10
                11          11
                12          12
                13          13
                14          14
                15          15
                16          16
                17          17
                18          18
                19          19
                20          20
                21          21
                22          22
                23          23
                24          24
                25          25
                26          26
                27          27
                28          28
                29          29
                30          30
                31          31
                32          32
                33          33
                34          34
                35          35
                36          36
                37          37
                38          38
                39          39
                40          40
                41          41
                42          42
                43          43
                44          44
                45          45
                46          46
                47          47
                48          48
                49          49
                50          50
                51          51
                52          52
                53          53
                54          54
                55          55
                56          56
                57          57
                58          58
                59          59
                60          60
                61          61
                62          62
                63          63
                64          64
                65          65
                66          66
                67          67
                68          68
                69          69
                70          70
                71          71
                72          72
                73          73
                74          74
                75          75
                76          76
                77          77
                78          78
                79          79
                80          80
                81          81
                82          82
                83          83
                84          84
                85          85
                86          86
                87          87
                88          88
                89          89
                90          90
                91          91
                92          92
                93          93
                94          94
                95          95
                96          96
                97          97
                98          98
                99          99

----------------------------------------------------------------------------------------

 
 
 KPOINTS: K-Spacing Value to Generate K-Mesh: 0.03

Automatic generation of k-mesh.
 Grid dimensions read from file:
 generate k-points for:    3    3    1

 Generating k-lattice:

  Cartesian coordinates                     Fractional coordinates (reciprocal lattice)
     0.028740092  0.016593100  0.000000000     0.333333333 -0.000000000  0.000000000
     0.000000000  0.033186200  0.000000000     0.000000000  0.333333333  0.000000000
     0.000000000  0.000000000  0.047510001     0.000000000  0.000000000  1.000000000

  Length of vectors
     0.033186200  0.033186200  0.047510001

  Shift w.r.t. Gamma in fractional coordinates (k-lattice)
     0.000000000  0.000000000  0.000000000

 
 Subroutine IBZKPT returns following result:
 ===========================================
 
 Found      4 irreducible k-points:
 
 Following reciprocal coordinates:
            Coordinates               Weight
  0.000000  0.000000  0.000000      1.000000
  0.333333 -0.000000  0.000000      4.000000
 -0.333333  0.333333  0.000000      2.000000
  0.333333  0.333333  0.000000      2.000000
 
 Following cartesian coordinates:
            Coordinates               Weight
  0.000000  0.000000  0.000000      1.000000
  0.028740  0.016593  0.000000      4.000000
 -0.028740  0.016593  0.000000      2.000000
  0.028740  0.049779  0.000000      2.000000
 


--------------------------------------------------------------------------------------------------------




 Dimension of arrays:
   k-points           NKPTS =      4   k-points in BZ     NKDIM =      4   number of bands    NBANDS=    528
   number of dos      NEDOS =    301   number of ions     NIONS =     99
   non local maximal  LDIM  =      8   non local SUM 2l+1 LMDIM =     32
   total plane-waves  NPLWV = ******
   max r-space proj   IRMAX =      1   max aug-charges    IRDMAX= 223050
   dimension x,y,z NGX =    90 NGY =   90 NGZ =  160
   dimension x,y,z NGXF=   180 NGYF=  180 NGZF=  320
   support grid    NGXF=   360 NGYF=  360 NGZF=  640
   ions per type =              27  72
   NGX,Y,Z   is equivalent  to a cutoff of  12.90, 12.90, 12.64 a.u.
   NGXF,Y,Z  is equivalent  to a cutoff of  25.80, 25.80, 25.27 a.u.

 SYSTEM =  unknown system                          
 POSCAR =  Generated by VASPKIT code               

 Startparameter for this run:
   NWRITE =      2    write-flag & timer
   PREC   = accura    normal or accurate (medium, high low for compatibility)
   ISTART =      0    job   : 0-new  1-cont  2-samecut
   ICHARG =      2    charge: 1-file 2-atom 10-const
   ISPIN  =      2    spin polarized calculation?
   LNONCOLLINEAR =      F non collinear calculations
   LSORBIT =      F    spin-orbit coupling
   INIWAV =      1    electr: 0-lowe 1-rand  2-diag
   LASPH  =      T    aspherical Exc in radial PAW
 Electronic Relaxation 1
   ENCUT  =  520.0 eV  38.22 Ry    6.18 a.u.  21.56 21.56 39.14*2*pi/ulx,y,z
   ENINI  =  520.0     initial cutoff
   ENAUG  =  605.4 eV  augmentation charge cutoff
   NELM   =     90;   NELMIN=  6; NELMDL=  0     # of ELM steps 
   EDIFF  = 0.1E-05   stopping-criterion for ELM
   LREAL  =      F    real-space projection
   NLSPLINE    = F    spline interpolate recip. space projectors
   LCOMPAT=      F    compatible to vasp.4.4
   GGA_COMPAT  = T    GGA compatible to vasp.4.4-vasp.4.6
   LMAXPAW     = -100 max onsite density
   LMAXMIX     =    6 max onsite mixed and CHGCAR
   VOSKOWN=      0    Vosko Wilk Nusair interpolation
   ROPT   =    0.00000   0.00000
 Ionic relaxation
   EDIFFG = -.2E-01   stopping-criterion for IOM
   NSW    =    300    number of steps for IOM
   NBLOCK =      1;   KBLOCK =    300    inner block; outer block 
   IBRION =      2    ionic relax: 0-MD 1-quasi-New 2-CG
   NFREE  =      1    steps in history (QN), initial steepest desc. (CG)
   ISIF   =      2    stress and relaxation
   IWAVPR =     11    prediction:  0-non 1-charg 2-wave 3-comb
   ISYM   =      2    0-nonsym 1-usesym 2-fastsym
   LCORR  =      T    Harris-Foulkes like correction to forces

   POTIM  = 0.5000    time-step for ionic-motion
   TEIN   =    0.0    initial temperature
   TEBEG  =    0.0;   TEEND  =   0.0 temperature during run
   SMASS  =  -3.00    Nose mass-parameter (am)
   estimated Nose-frequenzy (Omega)   =  0.10E-29 period in steps = 0.13E+47 mass=  -0.307E-26a.u.
   SCALEE = 1.0000    scale energy and forces
   NPACO  =    256;   APACO  = 10.0  distance and # of slots for P.C.
   PSTRESS=    0.0 pullay stress

  Mass of Ions in am
   POMASS = 140.12 16.00
  Ionic Valenz
   ZVAL   =  12.00  6.00
  Atomic Wigner-Seitz radii
   RWIGS  =  -1.00 -1.00
  virtual crystal weights 
   VCA    =   1.00  1.00
   NELECT =     756.0000    total number of electrons
   NUPDOWN=      -1.0000    fix difference up-down

 DOS related values:
   EMIN   =  10.00;   EMAX   =-10.00  energy-range for DOS
   EFERMI =   0.00;   METHOD = LEGACY      
   ISMEAR =     0;   SIGMA  =   0.05  broadening in eV -4-tet -1-fermi 0-gaus

 Electronic relaxation 2 (details)
   IALGO  =     38    algorithm
   LDIAG  =      T    sub-space diagonalisation (order eigenvalues)
   LSUBROT=      F    optimize rotation matrix (better conditioning)
   TURBO    =      0    0=normal 1=particle mesh
   IRESTART =      0    0=no restart 2=restart with 2 vectors
   NREBOOT  =      0    no. of reboots
   NMIN     =      0    reboot dimension
   EREF     =   0.00    reference energy to select bands
   IMIX   =      4    mixing-type and parameters
     AMIX     =   0.40;   BMIX     =  1.00
     AMIX_MAG =   1.60;   BMIX_MAG =  1.00
     AMIN     =   0.10
     WC   =   100.;   INIMIX=   1;  MIXPRE=   1;  MAXMIX= -45

 Intra band minimization:
   WEIMIN = 0.0010     energy-eigenvalue tresh-hold
   EBREAK =  0.47E-09  absolut break condition
   DEPER  =   0.30     relativ break condition  

   TIME   =   0.40     timestep for ELM

  volume/ion in A,a.u.               =      24.77       167.14
  Fermi-wavevector in a.u.,A,eV,Ry     =   1.105961  2.089963 16.641964  1.223150
  Thomas-Fermi vector in A             =   2.242455
 
 Write flags
   LWAVE        =      F    write WAVECAR
   LDOWNSAMPLE  =      F    k-point downsampling of WAVECAR
   LCHARG       =      F    write CHGCAR
   LVTOT        =      F    write LOCPOT, total local potential
   LVHAR        =      F    write LOCPOT, Hartree potential only
   WRT_POTENTIAL= false  ! write potential to hdf5 file
   LELF         =      F    write electronic localiz. function (ELF)
   LORBIT       =      0    0 simple, 1 ext, 2 COOP (PROOUT), +10 PAW based schemes


 Dipole corrections
   LMONO      =      F    monopole corrections only (constant potential shift)
   LDIPOL     =      F    correct potential (dipole corrections)
   IDIPOL     =      0    1-x, 2-y, 3-z, 4-all directions 
   EPSILON    =  1.0000000 bulk dielectric constant
   LVACPOTAV  =      F  vacuum potentials using an averaging scheme for the charge density
   VACPOTFLAT =  0.1000000 required flatness to determine vacuum potential
 LDA+U is selected, type is set to LDAUTYPE =  2
   angular momentum for each species LDAUL =     3   -1
   U (eV)           for each species LDAUU =   5.0  0.0
   J (eV)           for each species LDAUJ =   0.0  0.0
 Exchange correlation treatment:
   GGA     = PE    functional components
   XC_C    = 1    coefficients multiplying the functional components
   LIBXC   =     F    Libxc                    
   VOSKOWN =     0    Vosko Wilk Nusair interpolation
   LHFCALC =     F    Hartree Fock is set to
   LHFONE  =     F    Hartree Fock one center treatment
   AEXX    =    0.0000 exact exchange contribution

 Parameters of functionals:
   PE:
     No parameter
 
 Van der Waals corrections
   IVDW    =     0    specifies the selected vdW correction

 Linear response parameters
   LEPSILON=     F    determine dielectric tensor
   LRPA    =     F    only Hartree local field effects (RPA)
   LNABLA  =     F    use nabla operator in PAW spheres
   LVEL    =     F    velocity operator in full k-point grid
   CSHIFT  =0.1000    complex shift for real part using Kramers Kronig
   OMEGAMAX=  -1.0    maximum frequency
   DEG_THRESHOLD= 0.2000000E-02 threshold for treating states as degnerate
   RTIME   =   -0.100 relaxation time in fs
  (WPLASMAI=    0.000 imaginary part of plasma frequency in eV, 0.658/RTIME)
   DFIELD  = 0.0000000 0.0000000 0.0000000 field for delta impulse in time
 
  Optional k-point grid parameters
   LKPOINTS_OPT  =     F    use optional k-point grid
   KPOINTS_OPT_MODE=     1    mode for optional k-point grid
 
 Orbital magnetization related:
   ORBITALMAG=     F  switch on orbital magnetization
   LCHIMAG   =     F  perturbation theory with respect to B field
   DQ        =  0.001000  dq finite difference perturbation B field
   LLRAUG    =     F  two centre corrections for induced B field
   LBONE     =     F  B-component reconstruction in AE one-centre
   LVGVCALC  =     T  calculate vGv susceptibility
   LVGVAPPL  =     F  apply vGv susceptibility instead of pGv for G=0

 Random number generation:
   RANDOM_GENERATOR = DEFAULT
   PCG_SEED         = not used


--------------------------------------------------------------------------------------------------------


 conjugate gradient relaxation of ions
   using selective dynamics as specified on POSCAR
 charge density and potential will be updated during run
 spin polarized calculation
 Variant of blocked Davidson
 Davidson routine will perform the subspace rotation
 perform sub-space diagonalisation
    after iterative eigenvector-optimisation
 modified Broyden-mixing scheme, WC =      100.0
 initial mixing is a Kerker type mixing with AMIX =  0.4000 and BMIX =      1.0000
 Hartree-type preconditioning will be used
 using additional bands          150
 reciprocal scheme for non local part
 use partial core corrections
 calculate Harris-corrections to forces 
   (improved forces if not selfconsistent)
 use gradient corrections 
 use of overlap-Matrix (Vanderbilt PP)
 Gauss-broadening in eV      SIGMA  =   0.05


--------------------------------------------------------------------------------------------------------


  energy-cutoff  :      520.00
  volume of cell :     2452.04
      direct lattice vectors                 reciprocal lattice vectors
    11.598200000  0.000000000  0.000000000     0.086220276  0.049779299  0.000000000
    -5.799100000 10.044335838  0.000000000     0.000000000  0.099558599  0.000000000
     0.000000000  0.000000000 21.048200000     0.000000000  0.000000000  0.047510001

  length of vectors
    11.598200000 11.598200000 21.048200000     0.099558599  0.099558599  0.047510001


 
 k-points in units of 2pi/SCALE and weight: K-Spacing Value to Generate K-Mesh: 0.03
   0.00000000  0.00000000  0.00000000       0.111
   0.02874009  0.01659310  0.00000000       0.444
  -0.02874009  0.01659310  0.00000000       0.222
   0.02874009  0.04977930  0.00000000       0.222
 
 k-points in reciprocal lattice and weights: K-Spacing Value to Generate K-Mesh: 0.03
   0.00000000  0.00000000  0.00000000       0.111
   0.33333333 -0.00000000  0.00000000       0.444
  -0.33333333  0.33333333  0.00000000       0.222
   0.33333333  0.33333333  0.00000000       0.222
 
 position of ions in fractional coordinates (direct lattice) 
   0.00000000  0.00000000  0.45993000
   0.22222000  0.11111000  0.30996000
   0.11111000  0.22222000  0.15999000
   0.33333000  0.00000000  0.45993000
   0.55556000  0.11111000  0.30996000
   0.44444000  0.22222000  0.15999000
   0.66667000  0.00000000  0.45993000
   0.88889000  0.11111000  0.30996000
   0.77778000  0.22222000  0.15999000
   0.00000000  0.33333000  0.45993000
   0.22222000  0.44444000  0.30996000
   0.11111000  0.55556000  0.15999000
   0.33333000  0.33333000  0.45993000
   0.55556000  0.44444000  0.30996000
   0.44444000  0.55556000  0.15999000
   0.66667000  0.33333000  0.45993000
   0.88889000  0.44444000  0.30996000
   0.77778000  0.55556000  0.15999000
   0.00000000  0.66667000  0.45993000
   0.22222000  0.77778000  0.30996000
   0.11111000  0.88889000  0.15999000
   0.33333000  0.66667000  0.45993000
   0.55556000  0.77778000  0.30996000
   0.44444000  0.88889000  0.15999000
   0.66667000  0.66667000  0.45993000
   0.88889000  0.77778000  0.30996000
   0.77778000  0.88889000  0.15999000
   0.00000000  0.00000000  0.12250000
   0.00000000  0.00000000  0.57241000
   0.11111000  0.22222000  0.27247000
   0.22222000  0.11111000  0.42244000
   0.11111000  0.22222000  0.04751000
   0.11111000  0.22222000  0.49742000
   0.00000000  0.00000000  0.34745000
   0.22222000  0.11111000  0.19748000
   0.33333000  0.00000000  0.12250000
   0.33333000  0.00000000  0.57241000
   0.44444000  0.22222000  0.27247000
   0.55556000  0.11111000  0.42244000
   0.44444000  0.22222000  0.04751000
   0.44444000  0.22222000  0.49742000
   0.33333000  0.00000000  0.34745000
   0.55556000  0.11111000  0.19748000
   0.66667000  0.00000000  0.12250000
   0.66667000  0.00000000  0.57241000
   0.77778000  0.22222000  0.27247000
   0.88889000  0.11111000  0.42244000
   0.77778000  0.22222000  0.04751000
   0.77778000  0.22222000  0.49742000
   0.66667000  0.00000000  0.34745000
   0.88889000  0.11111000  0.19748000
   0.00000000  0.33333000  0.12250000
   0.00000000  0.33333000  0.57241000
   0.11111000  0.55556000  0.27247000
   0.22222000  0.44444000  0.42244000
   0.11111000  0.55556000  0.04751000
   0.11111000  0.55556000  0.49742000
   0.00000000  0.33333000  0.34745000
   0.22222000  0.44444000  0.19748000
   0.33333000  0.33333000  0.12250000
   0.33333000  0.33333000  0.57241000
   0.44444000  0.55556000  0.27247000
   0.55556000  0.44444000  0.42244000
   0.44444000  0.55556000  0.04751000
   0.44444000  0.55556000  0.49742000
   0.33333000  0.33333000  0.34745000
   0.55556000  0.44444000  0.19748000
   0.66667000  0.33333000  0.12250000
   0.66667000  0.33333000  0.57241000
   0.77778000  0.55556000  0.27247000
   0.88889000  0.44444000  0.42244000
   0.77778000  0.55556000  0.04751000
   0.77778000  0.55556000  0.49742000
   0.66667000  0.33333000  0.34745000
   0.88889000  0.44444000  0.19748000
   0.00000000  0.66667000  0.12250000
   0.00000000  0.66667000  0.57241000
   0.11111000  0.88889000  0.27247000
   0.22222000  0.77778000  0.42244000
   0.11111000  0.88889000  0.04751000
   0.11111000  0.88889000  0.49742000
   0.00000000  0.66667000  0.34745000
   0.22222000  0.77778000  0.19748000
   0.33333000  0.66667000  0.12250000
   0.33333000  0.66667000  0.57241000
   0.44444000  0.88889000  0.27247000
   0.55556000  0.77778000  0.42244000
   0.44444000  0.88889000  0.04751000
   0.44444000  0.88889000  0.49742000
   0.33333000  0.66667000  0.34745000
   0.55556000  0.77778000  0.19748000
   0.66667000  0.66667000  0.12250000
   0.66667000  0.66667000  0.57241000
   0.77778000  0.88889000  0.27247000
   0.88889000  0.77778000  0.42244000
   0.77778000  0.88889000  0.04751000
   0.77778000  0.88889000  0.49742000
   0.66667000  0.66667000  0.34745000
   0.88889000  0.77778000  0.19748000
 
 position of ions in cartesian coordinates  (Angst):
   0.00000000  0.00000000  9.68069863
   1.93301400  1.11602615  6.52410007
  -0.00000000  2.23205231  3.36750152
   3.86602801  0.00000000  9.68069863
   5.79915799  1.11602615  6.52410007
   3.86602801  2.23205231  3.36750152
   7.73217199  0.00000000  9.68069863
   9.66518600  1.11602615  6.52410007
   7.73217199  2.23205231  3.36750152
  -1.93301400  3.34807846  9.68069863
   0.00000000  4.46410462  6.52410007
  -1.93307199  5.58023122  3.36750152
   1.93301400  3.34807846  9.68069863
   3.86614399  4.46410462  6.52410007
   1.93295601  5.58023122  3.36750152
   5.79915799  3.34807846  9.68069863
   7.73217199  4.46410462  6.52410007
   5.79910000  5.58023122  3.36750152
  -3.86608600  6.69625737  9.68069863
  -1.93307199  7.81228353  6.52410007
  -3.86608600  8.92830968  3.36750152
  -0.00005799  6.69625737  9.68069863
   1.93307199  7.81228353  6.52410007
  -0.00005799  8.92830968  3.36750152
   3.86608600  6.69625737  9.68069863
   5.79910000  7.81228353  6.52410007
   3.86608600  8.92830968  3.36750152
   0.00000000  0.00000000  2.57840450
   0.00000000  0.00000000 12.04820016
  -0.00000000  2.23205231  5.73500305
   1.93301400  1.11602615  8.89160161
  -0.00000000  2.23205231  0.99999998
  -0.00000000  2.23205231 10.46979564
   0.00000000  0.00000000  7.31319709
   1.93301400  1.11602615  4.15659854
   3.86602801  0.00000000  2.57840450
   3.86602801  0.00000000 12.04820016
   3.86602801  2.23205231  5.73500305
   5.79915799  1.11602615  8.89160161
   3.86602801  2.23205231  0.99999998
   3.86602801  2.23205231 10.46979564
   3.86602801  0.00000000  7.31319709
   5.79915799  1.11602615  4.15659854
   7.73217199  0.00000000  2.57840450
   7.73217199  0.00000000 12.04820016
   7.73217199  2.23205231  5.73500305
   9.66518600  1.11602615  8.89160161
   7.73217199  2.23205231  0.99999998
   7.73217199  2.23205231 10.46979564
   7.73217199  0.00000000  7.31319709
   9.66518600  1.11602615  4.15659854
  -1.93301400  3.34807846  2.57840450
  -1.93301400  3.34807846 12.04820016
  -1.93307199  5.58023122  5.73500305
   0.00000000  4.46410462  8.89160161
  -1.93307199  5.58023122  0.99999998
  -1.93307199  5.58023122 10.46979564
  -1.93301400  3.34807846  7.31319709
   0.00000000  4.46410462  4.15659854
   1.93301400  3.34807846  2.57840450
   1.93301400  3.34807846 12.04820016
   1.93295601  5.58023122  5.73500305
   3.86614399  4.46410462  8.89160161
   1.93295601  5.58023122  0.99999998
   1.93295601  5.58023122 10.46979564
   1.93301400  3.34807846  7.31319709
   3.86614399  4.46410462  4.15659854
   5.79915799  3.34807846  2.57840450
   5.79915799  3.34807846 12.04820016
   5.79910000  5.58023122  5.73500305
   7.73217199  4.46410462  8.89160161
   5.79910000  5.58023122  0.99999998
   5.79910000  5.58023122 10.46979564
   5.79915799  3.34807846  7.31319709
   7.73217199  4.46410462  4.15659854
  -3.86608600  6.69625737  2.57840450
  -3.86608600  6.69625737 12.04820016
  -3.86608600  8.92830968  5.73500305
  -1.93307199  7.81228353  8.89160161
  -3.86608600  8.92830968  0.99999998
  -3.86608600  8.92830968 10.46979564
  -3.86608600  6.69625737  7.31319709
  -1.93307199  7.81228353  4.15659854
  -0.00005799  6.69625737  2.57840450
  -0.00005799  6.69625737 12.04820016
  -0.00005799  8.92830968  5.73500305
   1.93307199  7.81228353  8.89160161
  -0.00005799  8.92830968  0.99999998
  -0.00005799  8.92830968 10.46979564
  -0.00005799  6.69625737  7.31319709
   1.93307199  7.81228353  4.15659854
   3.86608600  6.69625737  2.57840450
   3.86608600  6.69625737 12.04820016
   3.86608600  8.92830968  5.73500305
   5.79910000  7.81228353  8.89160161
   3.86608600  8.92830968  0.99999998
   3.86608600  8.92830968 10.46979564
   3.86608600  6.69625737  7.31319709
   5.79910000  7.81228353  4.15659854
 


--------------------------------------------------------------------------------------------------------


 k-point     1 :   0.0000 0.0000 0.0000  plane waves:   66067
 k-point     2 :   0.3333-0.0000 0.0000  plane waves:   66026
 k-point     3 :  -0.3333 0.3333 0.0000  plane waves:   66026
 k-point     4 :   0.3333 0.3333 0.0000  plane waves:   66042

 maximum and minimum number of plane-waves per node :     16543    16486

 maximum number of plane-waves:     66067
 maximum index in each direction: 
   IXMAX=   21   IYMAX=   21   IZMAX=   39
   IXMIN=  -21   IYMIN=  -21   IZMIN=  -39


 parallel 3D FFT for wavefunctions:
    minimum data exchange during FFTs selected (reduces bandwidth)
 parallel 3D FFT for charge:
    minimum data exchange during FFTs selected (reduces bandwidth)


 total amount of memory used by VASP MPI-rank0   165545. kBytes
=======================================================================

   base      :      30000. kBytes
   nonl-proj :      59971. kBytes
   fftplans  :      18135. kBytes
   grid      :      31193. kBytes
   one-center:       2457. kBytes
   wavefun   :      23789. kBytes
 
     INWAV:  cpu time      0.0000: real time      0.0000
 Broyden mixing: mesh for mixing (old mesh)
   NGX = 43   NGY = 43   NGZ = 79
  (NGX  =180   NGY  =180   NGZ  =320)
  gives a total of 146071 points

 initial charge density was supplied:
 charge density of overlapping atoms calculated
 number of electron     756.0000000 magnetization      70.2000000
 keeping initial charge density in first step


--------------------------------------------------------------------------------------------------------


 Maximum index for augmentation-charges         3930 (set IRDMAX)


--------------------------------------------------------------------------------------------------------


 First call to EWALD:  gamma=   0.131
 Maximum number of real-space cells 4x 4x 2
 Maximum number of reciprocal cells 2x 2x 4

    FEWALD:  cpu time      0.0062: real time      0.0065


--------------------------------------- Ionic step        1  -------------------------------------------




--------------------------------------- Iteration      1(   1)  ---------------------------------------


    POTLOK:  cpu time      0.1524: real time      0.1584
    SETDIJ:  cpu time      1.1965: real time      1.1972
     EDDAV:  cpu time     19.3591: real time     19.4094
       DOS:  cpu time      0.0151: real time      0.0161
    --------------------------------------------
      LOOP:  cpu time     20.7231: real time     20.7810

 eigenvalue-minimisations  :  8448
 total energy-change (2. order) : 0.1207571E+05  (-0.3081956E+05)
 number of electron     756.0000000 magnetization      70.2000000
 augmentation part      756.0000000 magnetization      70.2000000

 Free energy of the ion-electron system (eV)
  ---------------------------------------------------
  alpha Z        PSCENC =      1974.14298321
  Ewald energy   TEWEN  =    122685.08568802
  -Hartree energ DENC   =   -178097.04835841
  -exchange      EXHF   =         0.00000000
  -V(xc)+E(xc)   XCENC  =      2124.76690006
  PAW double counting   =     47919.11190030   -47389.25643230
  entropy T*S    EENTRO =        -0.03584442
  eigenvalues    EBANDS =      3026.20063587
  atomic energy  EATOM  =     59832.74074702
  Solvation  Ediel_sol  =         0.00000000
  ---------------------------------------------------
  free energy    TOTEN  =     12075.70821936 eV

  energy without entropy =    12075.74406377  energy(sigma->0) =    12075.72614157


--------------------------------------------------------------------------------------------------------




--------------------------------------- Iteration      1(   2)  ---------------------------------------


     EDDAV:  cpu time     21.3647: real time     21.3752
       DOS:  cpu time      0.0009: real time      0.0009
    --------------------------------------------
      LOOP:  cpu time     21.3656: real time     21.3761

 eigenvalue-minimisations  :  9600
 total energy-change (2. order) :-0.8714059E+04  (-0.7259358E+04)
 number of electron     756.0000000 magnetization      70.2000000
 augmentation part      756.0000000 magnetization      70.2000000

 Free energy of the ion-electron system (eV)
  ---------------------------------------------------
  alpha Z        PSCENC =      1974.14298321
  Ewald energy   TEWEN  =    122685.08568802
  -Hartree energ DENC   =   -178097.04835841
  -exchange      EXHF   =         0.00000000
  -V(xc)+E(xc)   XCENC  =      2124.76690006
  PAW double counting   =     47919.11190030   -47389.25643230
  entropy T*S    EENTRO =        -0.18880709
  eigenvalues    EBANDS =     -5687.70518415
  atomic energy  EATOM  =     59832.74074702
  Solvation  Ediel_sol  =         0.00000000
  ---------------------------------------------------
  free energy    TOTEN  =      3361.64943666 eV

  energy without entropy =     3361.83824375  energy(sigma->0) =     3361.74384021


--------------------------------------------------------------------------------------------------------




--------------------------------------- Iteration      1(   3)  ---------------------------------------


     EDDAV:  cpu time     24.6647: real time     24.6792
       DOS:  cpu time      0.0009: real time      0.0009
    --------------------------------------------
      LOOP:  cpu time     24.6656: real time     24.6801

 eigenvalue-minimisations  : 11376
 total energy-change (2. order) :-0.3663554E+04  (-0.3487886E+04)
 number of electron     756.0000000 magnetization      70.2000000
 augmentation part      756.0000000 magnetization      70.2000000

 Free energy of the ion-electron system (eV)
  ---------------------------------------------------
  alpha Z        PSCENC =      1974.14298321
  Ewald energy   TEWEN  =    122685.08568802
  -Hartree energ DENC   =   -178097.04835841
  -exchange      EXHF   =         0.00000000
  -V(xc)+E(xc)   XCENC  =      2124.76690006
  PAW double counting   =     47919.11190030   -47389.25643230
  entropy T*S    EENTRO =        -0.01225690
  eigenvalues    EBANDS =     -9351.43586648
  atomic energy  EATOM  =     59832.74074702
  Solvation  Ediel_sol  =         0.00000000
  ---------------------------------------------------
  free energy    TOTEN  =      -301.90469548 eV

  energy without entropy =     -301.89243858  energy(sigma->0) =     -301.89856703


--------------------------------------------------------------------------------------------------------




--------------------------------------- Iteration      1(   4)  ---------------------------------------


     EDDAV:  cpu time     25.8635: real time     25.8766
       DOS:  cpu time      0.0010: real time      0.0010
    --------------------------------------------
      LOOP:  cpu time     25.8645: real time     25.8775

 eigenvalue-minimisations  : 12096
 total energy-change (2. order) :-0.5120386E+03  (-0.4860472E+03)
 number of electron     756.0000000 magnetization      70.2000000
 augmentation part      756.0000000 magnetization      70.2000000

 Free energy of the ion-electron system (eV)
  ---------------------------------------------------
  alpha Z        PSCENC =      1974.14298321
  Ewald energy   TEWEN  =    122685.08568802
  -Hartree energ DENC   =   -178097.04835841
  -exchange      EXHF   =         0.00000000
  -V(xc)+E(xc)   XCENC  =      2124.76690006
  PAW double counting   =     47919.11190030   -47389.25643230
  entropy T*S    EENTRO =        -0.03038784
  eigenvalues    EBANDS =     -9863.45631218
  atomic energy  EATOM  =     59832.74074702
  Solvation  Ediel_sol  =         0.00000000
  ---------------------------------------------------
  free energy    TOTEN  =      -813.94327211 eV

  energy without entropy =     -813.91288428  energy(sigma->0) =     -813.92807819


--------------------------------------------------------------------------------------------------------




--------------------------------------- Iteration      1(   5)  ---------------------------------------


     EDDAV:  cpu time     29.8323: real time     29.8477
       DOS:  cpu time      0.0009: real time      0.0009
    CHARGE:  cpu time      1.1260: real time      1.1293
    MIXING:  cpu time      0.0172: real time      0.0179
    --------------------------------------------
      LOOP:  cpu time     30.9764: real time     30.9959

 eigenvalue-minimisations  : 14208
 total energy-change (2. order) :-0.3244253E+02  (-0.3154567E+02)
 number of electron     755.9999996 magnetization      65.7228269
 augmentation part        5.2596487 magnetization      38.0678167

 Broyden mixing:
  rms(total) = 0.14050E+02    rms(broyden)= 0.14047E+02
  rms(prec ) = 0.14494E+02
  weight for this iteration     100.00

 Free energy of the ion-electron system (eV)
  ---------------------------------------------------
  alpha Z        PSCENC =      1974.14298321
  Ewald energy   TEWEN  =    122685.08568802
  -Hartree energ DENC   =   -178097.04835841
  -exchange      EXHF   =         0.00000000
  -V(xc)+E(xc)   XCENC  =      2124.76690006
  PAW double counting   =     47919.11190030   -47389.25643230
  entropy T*S    EENTRO =        -0.00002117
  eigenvalues    EBANDS =     -9895.92920484
  atomic energy  EATOM  =     59832.74074702
  Solvation  Ediel_sol  =         0.00000000
  ---------------------------------------------------
  free energy    TOTEN  =      -846.38579811 eV

  energy without entropy =     -846.38577694  energy(sigma->0) =     -846.38578752


--------------------------------------------------------------------------------------------------------




--------------------------------------- Iteration      1(   6)  ---------------------------------------


    POTLOK:  cpu time      0.0874: real time      0.0875
    SETDIJ:  cpu time      1.1811: real time      1.1813
     EDDAV:  cpu time     25.2006: real time     25.2137
       DOS:  cpu time      0.0014: real time      0.0014
    CHARGE:  cpu time      1.0902: real time      1.0909
    MIXING:  cpu time      0.0075: real time      0.0077
    --------------------------------------------
      LOOP:  cpu time     27.5683: real time     27.5826

 eigenvalue-minimisations  : 11760
 total energy-change (2. order) : 0.1857607E+03  (-0.1475539E+03)
 number of electron     755.9999998 magnetization      62.8368410
 augmentation part       16.0211119 magnetization      36.1586811

 Broyden mixing:
  rms(total) = 0.67786E+01    rms(broyden)= 0.67759E+01
  rms(prec ) = 0.72460E+01
  weight for this iteration     100.00

 eigenvalues of (default mixing * dielectric matrix)
  average eigenvalue GAMMA=   0.7288
  0.7288

 Free energy of the ion-electron system (eV)
  ---------------------------------------------------
  alpha Z        PSCENC =      1974.14298321
  Ewald energy   TEWEN  =    122685.08568802
  -Hartree energ DENC   =   -179128.16832373
  -exchange      EXHF   =         0.00000000
  -V(xc)+E(xc)   XCENC  =      2237.31527663
  PAW double counting   =     50918.07439099   -50367.72816670
  entropy T*S    EENTRO =        -0.00018674
  eigenvalues    EBANDS =     -8812.08746099
  atomic energy  EATOM  =     59832.74074702
  Solvation  Ediel_sol  =         0.00000000
  ---------------------------------------------------
  free energy    TOTEN  =      -660.62505229 eV

  energy without entropy =     -660.62486555  energy(sigma->0) =     -660.62495892


--------------------------------------------------------------------------------------------------------




--------------------------------------- Iteration      1(   7)  ---------------------------------------


    POTLOK:  cpu time      0.0862: real time      0.0863
    SETDIJ:  cpu time      1.1648: real time      1.1650
     EDDAV:  cpu time     29.6379: real time     29.6522
       DOS:  cpu time      0.0007: real time      0.0007
    CHARGE:  cpu time      1.0831: real time      1.0836
    MIXING:  cpu time      0.0025: real time      0.0025
    --------------------------------------------
      LOOP:  cpu time     31.9752: real time     31.9903

 eigenvalue-minimisations  : 14064
 total energy-change (2. order) :-0.4389733E+02  (-0.8553319E+02)
 number of electron     755.9999996 magnetization      58.7762863
 augmentation part       -2.5540172 magnetization      29.8669883

 Broyden mixing:
  rms(total) = 0.74567E+01    rms(broyden)= 0.74559E+01
  rms(prec ) = 0.76230E+01
  weight for this iteration     100.00

 eigenvalues of (default mixing * dielectric matrix)
  average eigenvalue GAMMA=   0.7984
  1.1753  0.4215

 Free energy of the ion-electron system (eV)
  ---------------------------------------------------
  alpha Z        PSCENC =      1974.14298321
  Ewald energy   TEWEN  =    122685.08568802
  -Hartree energ DENC   =   -179041.16596996
  -exchange      EXHF   =         0.00000000
  -V(xc)+E(xc)   XCENC  =      2192.52133281
  PAW double counting   =     52118.75504215   -51599.04846159
  entropy T*S    EENTRO =        -0.00000000
  eigenvalues    EBANDS =     -8867.55374310
  atomic energy  EATOM  =     59832.74074702
  Solvation  Ediel_sol  =         0.00000000
  ---------------------------------------------------
  free energy    TOTEN  =      -704.52238144 eV

  energy without entropy =     -704.52238144  energy(sigma->0) =     -704.52238144


--------------------------------------------------------------------------------------------------------




--------------------------------------- Iteration      1(   8)  ---------------------------------------


    POTLOK:  cpu time      0.0857: real time      0.0857
    SETDIJ:  cpu time      1.1666: real time      1.1668
     EDDAV:  cpu time     27.6038: real time     27.6176
       DOS:  cpu time      0.0008: real time      0.0008
    CHARGE:  cpu time      1.0883: real time      1.0891
    MIXING:  cpu time      0.0040: real time      0.0040
    --------------------------------------------
      LOOP:  cpu time     29.9491: real time     29.9639

 eigenvalue-minimisations  : 13056
 total energy-change (2. order) : 0.1712291E+02  (-0.7534645E+01)
 number of electron     755.9999996 magnetization      54.8790051
 augmentation part       -2.4143781 magnetization      26.9535663

 Broyden mixing:
  rms(total) = 0.36437E+01    rms(broyden)= 0.36436E+01
  rms(prec ) = 0.38139E+01
  weight for this iteration     100.00

 eigenvalues of (default mixing * dielectric matrix)
  average eigenvalue GAMMA=   1.0651
  1.8093  0.8558  0.5303

 Free energy of the ion-electron system (eV)
  ---------------------------------------------------
  alpha Z        PSCENC =      1974.14298321
  Ewald energy   TEWEN  =    122685.08568802
  -Hartree energ DENC   =   -179226.83092011
  -exchange      EXHF   =         0.00000000
  -V(xc)+E(xc)   XCENC  =      2197.05590146
  PAW double counting   =     53649.06487900   -53112.38125851
  entropy T*S    EENTRO =        -0.00000000
  eigenvalues    EBANDS =     -8686.27749419
  atomic energy  EATOM  =     59832.74074702
  Solvation  Ediel_sol  =         0.00000000
  ---------------------------------------------------
  free energy    TOTEN  =      -687.39947411 eV

  energy without entropy =     -687.39947411  energy(sigma->0) =     -687.39947411


--------------------------------------------------------------------------------------------------------




--------------------------------------- Iteration      1(   9)  ---------------------------------------


    POTLOK:  cpu time      0.0855: real time      0.0855
    SETDIJ:  cpu time      1.1682: real time      1.1683
     EDDAV:  cpu time     30.3707: real time     30.3854
       DOS:  cpu time      0.0011: real time      0.0011
    CHARGE:  cpu time      1.0830: real time      1.0840
    MIXING:  cpu time      0.0026: real time      0.0026
    --------------------------------------------
      LOOP:  cpu time     32.7111: real time     32.7269

 eigenvalue-minimisations  : 14496
 total energy-change (2. order) : 0.1337184E+01  (-0.1121517E+02)
 number of electron     755.9999996 magnetization      53.3231042
 augmentation part       -2.0528113 magnetization      25.0798612

 Broyden mixing:
  rms(total) = 0.26299E+01    rms(broyden)= 0.26271E+01
  rms(prec ) = 0.28768E+01
  weight for this iteration     100.00

 eigenvalues of (default mixing * dielectric matrix)
  average eigenvalue GAMMA=   0.9861
  2.1137  0.9074  0.4617  0.4617

 Free energy of the ion-electron system (eV)
  ---------------------------------------------------
  alpha Z        PSCENC =      1974.14298321
  Ewald energy   TEWEN  =    122685.08568802
  -Hartree energ DENC   =   -179460.99478405
  -exchange      EXHF   =         0.00000000
  -V(xc)+E(xc)   XCENC  =      2205.34081691
  PAW double counting   =     54274.80013033   -53720.02079816
  entropy T*S    EENTRO =        -0.01021060
  eigenvalues    EBANDS =     -8477.14686326
  atomic energy  EATOM  =     59832.74074702
  Solvation  Ediel_sol  =         0.00000000
  ---------------------------------------------------
  free energy    TOTEN  =      -686.06229057 eV

  energy without entropy =     -686.05207998  energy(sigma->0) =     -686.05718528


--------------------------------------------------------------------------------------------------------




--------------------------------------- Iteration      1(  10)  ---------------------------------------


    POTLOK:  cpu time      0.0858: real time      0.0858
    SETDIJ:  cpu time      1.1668: real time      1.1670
     EDDAV:  cpu time     30.7335: real time     30.7496
       DOS:  cpu time      0.0010: real time      0.0010
    CHARGE:  cpu time      1.0763: real time      1.0776
    MIXING:  cpu time      0.0042: real time      0.0042
    --------------------------------------------
      LOOP:  cpu time     33.0675: real time     33.0851

 eigenvalue-minimisations  : 14688
 total energy-change (2. order) : 0.3057416E+00  (-0.1994881E+01)
 number of electron     755.9999996 magnetization      51.8997697
 augmentation part       -1.3361796 magnetization      23.3953622

 Broyden mixing:
  rms(total) = 0.17713E+01    rms(broyden)= 0.17711E+01
  rms(prec ) = 0.18625E+01
  weight for this iteration     100.00

 eigenvalues of (default mixing * dielectric matrix)
  average eigenvalue GAMMA=   0.8683
  2.0321  0.9052  0.5481  0.5481  0.3078

 Free energy of the ion-electron system (eV)
  ---------------------------------------------------
  alpha Z        PSCENC =      1974.14298321
  Ewald energy   TEWEN  =    122685.08568802
  -Hartree energ DENC   =   -179360.52040851
  -exchange      EXHF   =         0.00000000
  -V(xc)+E(xc)   XCENC  =      2203.55331611
  PAW double counting   =     54439.23721544   -53875.98445514
  entropy T*S    EENTRO =        -0.00000000
  eigenvalues    EBANDS =     -8584.01163512
  atomic energy  EATOM  =     59832.74074702
  Solvation  Ediel_sol  =         0.00000000
  ---------------------------------------------------
  free energy    TOTEN  =      -685.75654898 eV

  energy without entropy =     -685.75654898  energy(sigma->0) =     -685.75654898


--------------------------------------------------------------------------------------------------------




--------------------------------------- Iteration      1(  11)  ---------------------------------------


    POTLOK:  cpu time      0.0865: real time      0.0865
    SETDIJ:  cpu time      1.1838: real time      1.1842
     EDDAV:  cpu time     31.3162: real time     31.3323
       DOS:  cpu time      0.0011: real time      0.0011
    CHARGE:  cpu time      1.0703: real time      1.0713
    MIXING:  cpu time      0.0046: real time      0.0046
    --------------------------------------------
      LOOP:  cpu time     33.6624: real time     33.6799

 eigenvalue-minimisations  : 15024
 total energy-change (2. order) : 0.2475742E+00  (-0.1329440E+01)
 number of electron     755.9999996 magnetization      49.4282570
 augmentation part       -3.8543331 magnetization      20.6283659

 Broyden mixing:
  rms(total) = 0.89720E+00    rms(broyden)= 0.89668E+00
  rms(prec ) = 0.92825E+00
  weight for this iteration     100.00

 eigenvalues of (default mixing * dielectric matrix)
  average eigenvalue GAMMA=   0.8692
  2.1609  0.9874  0.5464  0.5464  0.4871  0.4871

 Free energy of the ion-electron system (eV)
  ---------------------------------------------------
  alpha Z        PSCENC =      1974.14298321
  Ewald energy   TEWEN  =    122685.08568802
  -Hartree energ DENC   =   -179327.60507383
  -exchange      EXHF   =         0.00000000
  -V(xc)+E(xc)   XCENC  =      2200.20415490
  PAW double counting   =     54526.45611263   -53957.24410214
  entropy T*S    EENTRO =        -0.00000000
  eigenvalues    EBANDS =     -8619.28948457
  atomic energy  EATOM  =     59832.74074702
  Solvation  Ediel_sol  =         0.00000000
  ---------------------------------------------------
  free energy    TOTEN  =      -685.50897477 eV

  energy without entropy =     -685.50897477  energy(sigma->0) =     -685.50897477


--------------------------------------------------------------------------------------------------------




--------------------------------------- Iteration      1(  12)  ---------------------------------------


    POTLOK:  cpu time      0.0822: real time      0.0823
    SETDIJ:  cpu time      1.1662: real time      1.1664
     EDDAV:  cpu time     29.7606: real time     29.7738
       DOS:  cpu time      0.0007: real time      0.0007
    CHARGE:  cpu time      1.0876: real time      1.0888
    MIXING:  cpu time      0.0038: real time      0.0038
    --------------------------------------------
      LOOP:  cpu time     32.1011: real time     32.1158

 eigenvalue-minimisations  : 14160
 total energy-change (2. order) :-0.3591687E+01  (-0.1664614E+00)
 number of electron     755.9999996 magnetization      43.6979564
 augmentation part       -3.7905805 magnetization      15.0676596

 Broyden mixing:
  rms(total) = 0.90709E+00    rms(broyden)= 0.90709E+00
  rms(prec ) = 0.93383E+00
  weight for this iteration     100.00

 eigenvalues of (default mixing * dielectric matrix)
  average eigenvalue GAMMA=   0.9985
  2.2581  1.6512  0.8321  0.8321  0.5241  0.5241  0.3678

 Free energy of the ion-electron system (eV)
  ---------------------------------------------------
  alpha Z        PSCENC =      1974.14298321
  Ewald energy   TEWEN  =    122685.08568802
  -Hartree energ DENC   =   -179354.09556534
  -exchange      EXHF   =         0.00000000
  -V(xc)+E(xc)   XCENC  =      2196.42996872
  PAW double counting   =     54755.39410692   -54173.02688698
  entropy T*S    EENTRO =        -0.00000000
  eigenvalues    EBANDS =     -8605.77170318
  atomic energy  EATOM  =     59832.74074702
  Solvation  Ediel_sol  =         0.00000000
  ---------------------------------------------------
  free energy    TOTEN  =      -689.10066161 eV

  energy without entropy =     -689.10066161  energy(sigma->0) =     -689.10066161


--------------------------------------------------------------------------------------------------------




--------------------------------------- Iteration      1(  13)  ---------------------------------------


    POTLOK:  cpu time      0.0850: real time      0.0850
    SETDIJ:  cpu time      1.1673: real time      1.1675
     EDDAV:  cpu time     29.1064: real time     29.1214
       DOS:  cpu time      0.0014: real time      0.0014
    CHARGE:  cpu time      1.0777: real time      1.0787
    MIXING:  cpu time      0.0026: real time      0.0026
    --------------------------------------------
      LOOP:  cpu time     31.4404: real time     31.4566

 eigenvalue-minimisations  : 13824
 total energy-change (2. order) :-0.3136223E+01  (-0.4502143E+00)
 number of electron     755.9999996 magnetization      41.1094175
 augmentation part       -5.0152269 magnetization      12.7223284

 Broyden mixing:
  rms(total) = 0.61878E+00    rms(broyden)= 0.61865E+00
  rms(prec ) = 0.65210E+00
  weight for this iteration     100.00

 eigenvalues of (default mixing * dielectric matrix)
  average eigenvalue GAMMA=   1.1183
  3.2074  1.9443  1.0044  0.6936  0.6936  0.5125  0.5125  0.3783

 Free energy of the ion-electron system (eV)
  ---------------------------------------------------
  alpha Z        PSCENC =      1974.14298321
  Ewald energy   TEWEN  =    122685.08568802
  -Hartree energ DENC   =   -179378.97447315
  -exchange      EXHF   =         0.00000000
  -V(xc)+E(xc)   XCENC  =      2189.77037466
  PAW double counting   =     55046.52645592   -54439.65193749
  entropy T*S    EENTRO =        -0.00000000
  eigenvalues    EBANDS =     -8601.87672313
  atomic energy  EATOM  =     59832.74074702
  Solvation  Ediel_sol  =         0.00000000
  ---------------------------------------------------
  free energy    TOTEN  =      -692.23688495 eV

  energy without entropy =     -692.23688495  energy(sigma->0) =     -692.23688495


--------------------------------------------------------------------------------------------------------




--------------------------------------- Iteration      1(  14)  ---------------------------------------


    POTLOK:  cpu time      0.0851: real time      0.0851
    SETDIJ:  cpu time      1.1724: real time      1.1726
     EDDAV:  cpu time     27.8099: real time     27.8241
       DOS:  cpu time      0.0010: real time      0.0010
    CHARGE:  cpu time      1.0838: real time      1.0851
    MIXING:  cpu time      0.0025: real time      0.0025
    --------------------------------------------
      LOOP:  cpu time     30.1547: real time     30.1704

 eigenvalue-minimisations  : 13152
 total energy-change (2. order) : 0.2762963E+00  (-0.5231710E-01)
 number of electron     755.9999996 magnetization      39.3976313
 augmentation part       -5.0032259 magnetization      11.1529197

 Broyden mixing:
  rms(total) = 0.38911E+00    rms(broyden)= 0.38910E+00
  rms(prec ) = 0.41161E+00
  weight for this iteration     100.00

 eigenvalues of (default mixing * dielectric matrix)
  average eigenvalue GAMMA=   1.1802
  3.8549  1.8137  1.1015  0.9279  0.9279  0.5100  0.5100  0.3748  0.6009

 Free energy of the ion-electron system (eV)
  ---------------------------------------------------
  alpha Z        PSCENC =      1974.14298321
  Ewald energy   TEWEN  =    122685.08568802
  -Hartree energ DENC   =   -179421.94533949
  -exchange      EXHF   =         0.00000000
  -V(xc)+E(xc)   XCENC  =      2190.70075047
  PAW double counting   =     55167.19661515   -54554.50132555
  entropy T*S    EENTRO =        -0.00000000
  eigenvalues    EBANDS =     -8565.38070745
  atomic energy  EATOM  =     59832.74074702
  Solvation  Ediel_sol  =         0.00000000
  ---------------------------------------------------
  free energy    TOTEN  =      -691.96058863 eV

  energy without entropy =     -691.96058863  energy(sigma->0) =     -691.96058863


--------------------------------------------------------------------------------------------------------




--------------------------------------- Iteration      1(  15)  ---------------------------------------


    POTLOK:  cpu time      0.0851: real time      0.0851
    SETDIJ:  cpu time      1.1742: real time      1.1743
     EDDAV:  cpu time     28.5241: real time     28.5381
       DOS:  cpu time      0.0010: real time      0.0010
[...]
   -.369E-02 0.217E-02 -.698E+03   0.402E-02 -.236E-02 0.698E+03   -.495E-03 -.138E-03 0.437E+00   -.670E-07 -.128E-06 -.107E-04
   -.966E-03 -.817E-02 0.140E+04   0.985E-03 0.816E-02 -.141E+04   -.477E-04 0.304E-04 0.124E+02   0.162E-06 0.108E-06 -.332E-04
   0.131E-02 0.141E-02 -.121E+04   -.139E-02 -.151E-02 0.122E+04   -.132E-04 -.201E-03 -.770E+01   -.346E-07 0.151E-06 -.192E-04
   0.350E-02 -.202E-02 -.242E+03   -.376E-02 0.217E-02 0.243E+03   0.157E-03 -.904E-04 -.638E+00   -.896E-07 0.517E-07 -.479E-05
   -.435E-02 -.537E-02 0.700E+03   0.412E-02 0.515E-02 -.700E+03   0.357E-03 0.331E-03 -.142E+00   -.188E-06 -.856E-07 0.999E-05
   -.923E-02 -.650E-02 0.121E+04   0.896E-02 0.648E-02 -.122E+04   0.497E-03 0.109E-03 0.723E+01   -.255E-06 -.371E-06 -.110E-04
   -.114E-01 -.767E-02 -.140E+04   0.109E-01 0.772E-02 0.141E+04   0.451E-03 0.107E-04 -.125E+02   0.138E-07 0.101E-08 -.107E-04
   -.803E-04 -.209E-02 0.238E+03   -.197E-03 0.183E-02 -.239E+03   0.382E-03 0.411E-03 0.587E+00   -.354E-06 -.249E-06 0.116E-04
   0.610E-02 0.718E-02 -.698E+03   -.647E-02 -.757E-02 0.698E+03   0.311E-03 0.907E-04 0.437E+00   0.186E-06 -.208E-07 -.106E-04
   -.727E-02 -.120E-01 0.140E+04   0.720E-02 0.119E-01 -.141E+04   0.102E-03 0.147E-03 0.124E+02   -.238E-06 -.856E-07 -.333E-04
   -.846E-02 -.609E-02 -.121E+04   0.889E-02 0.618E-02 0.122E+04   -.453E-03 -.382E-03 -.770E+01   0.197E-06 0.364E-06 -.188E-04
   -.906E-02 -.946E-02 -.242E+03   0.960E-02 0.101E-01 0.243E+03   -.497E-03 -.539E-03 -.638E+00   -.260E-06 0.220E-07 -.478E-05
   0.901E-02 -.775E-02 0.700E+03   -.922E-02 0.853E-02 -.700E+03   -.285E-03 -.789E-03 -.140E+00   -.106E-06 -.228E-06 0.101E-04
   0.179E-01 0.123E-01 0.121E+04   -.187E-01 -.130E-01 -.122E+04   0.590E-03 0.606E-03 0.723E+01   0.982E-07 -.373E-06 -.109E-04
   0.988E-02 0.362E-02 -.140E+04   -.936E-02 -.357E-02 0.141E+04   -.465E-03 -.155E-04 -.125E+02   0.271E-06 0.201E-07 -.108E-04
   0.283E-02 -.163E-02 0.238E+03   -.280E-02 0.162E-02 -.239E+03   -.772E-04 0.445E-04 0.588E+00   0.202E-06 -.117E-06 0.116E-04
   -.439E-02 0.253E-02 -.698E+03   0.474E-02 -.273E-02 0.698E+03   -.993E-04 0.573E-04 0.437E+00   0.201E-06 -.116E-06 -.106E-04
   0.685E-02 -.395E-02 0.140E+04   -.684E-02 0.395E-02 -.141E+04   -.363E-04 0.210E-04 0.124E+02   0.936E-07 -.540E-07 -.334E-04
   -.410E-02 0.237E-02 -.121E+04   0.445E-02 -.257E-02 0.122E+04   -.962E-04 0.555E-04 -.770E+01   -.258E-06 0.149E-06 -.187E-04
   0.793E-02 0.339E-03 -.242E+03   -.838E-02 -.257E-03 0.243E+03   0.453E-03 0.683E-04 -.639E+00   0.856E-07 0.519E-07 -.468E-05
   0.213E-02 -.123E-02 0.700E+03   -.196E-02 0.113E-02 -.700E+03   -.244E-03 0.141E-03 -.141E+00   0.132E-06 -.761E-07 0.101E-04
   -.171E-02 -.216E-01 0.121E+04   0.193E-02 0.227E-01 -.122E+04   -.230E-03 -.814E-03 0.723E+01   0.372E-06 0.101E-06 -.109E-04
   0.180E-02 -.104E-01 -.140E+04   -.158E-02 0.989E-02 0.141E+04   -.219E-03 0.410E-03 -.125E+02   0.118E-06 -.245E-06 -.108E-04
   -.306E-02 0.120E-05 0.238E+03   0.313E-02 0.561E-04 -.239E+03   -.116E-03 -.167E-03 0.587E+00   -.150E-06 0.864E-07 0.114E-04
   -.246E-02 -.910E-02 -.698E+03   0.260E-02 0.961E-02 0.698E+03   -.315E-03 -.492E-03 0.437E+00   -.216E-07 -.614E-06 -.107E-04
   -.107E-02 0.808E-02 0.140E+04   0.113E-02 -.797E-02 -.141E+04   -.876E-04 -.153E-03 0.124E+02   0.377E-07 0.617E-07 -.332E-04
   0.607E-02 0.949E-02 -.121E+04   -.635E-02 -.981E-02 0.122E+04   0.184E-03 0.329E-03 -.770E+01   -.169E-06 -.424E-06 -.191E-04
   0.367E-02 -.704E-02 -.242E+03   -.397E-02 0.738E-02 0.243E+03   0.168E-03 -.427E-03 -.639E+00   -.216E-08 -.100E-06 -.468E-05
   0.465E-02 -.802E-02 0.700E+03   -.584E-02 0.769E-02 -.700E+03   0.114E-02 0.825E-03 -.141E+00   0.876E-07 -.225E-06 0.991E-05
   -.117E-01 -.277E-01 0.121E+04   0.117E-01 0.288E-01 -.122E+04   0.200E-03 -.669E-03 0.723E+01   -.235E-06 -.519E-08 -.109E-04
   -.103E-01 -.179E-01 -.140E+04   0.992E-02 0.175E-01 0.141E+04   0.339E-03 0.377E-03 -.125E+02   0.243E-07 -.282E-06 -.104E-04
   -.155E-02 0.895E-03 0.238E+03   0.136E-02 -.787E-03 -.239E+03   0.257E-03 -.148E-03 0.586E+00   -.521E-07 0.301E-07 0.115E-04
   0.724E-02 -.418E-02 -.698E+03   -.780E-02 0.450E-02 0.698E+03   0.486E-03 -.281E-03 0.437E+00   0.339E-06 -.196E-06 -.109E-04
   -.739E-02 0.427E-02 0.140E+04   0.736E-02 -.425E-02 -.141E+04   0.630E-04 -.364E-04 0.124E+02   0.653E-07 -.377E-07 -.329E-04
   -.345E-02 0.199E-02 -.121E+04   0.369E-02 -.213E-02 0.122E+04   -.269E-03 0.155E-03 -.770E+01   0.195E-06 -.113E-06 -.187E-04
   -.905E-02 -.145E-01 -.242E+03   0.957E-02 0.154E-01 0.243E+03   -.501E-03 -.881E-03 -.639E+00   -.159E-06 -.265E-06 -.471E-05
   0.181E-01 -.105E-01 0.700E+03   -.193E-01 0.111E-01 -.700E+03   0.514E-03 -.297E-03 -.139E+00   -.379E-06 0.219E-06 0.994E-05
   0.155E-01 -.893E-02 0.121E+04   -.161E-01 0.928E-02 -.122E+04   0.294E-03 -.170E-03 0.723E+01   -.122E-06 0.701E-07 -.110E-04
   0.112E-01 -.647E-02 -.140E+04   -.105E-01 0.609E-02 0.141E+04   -.583E-03 0.336E-03 -.125E+02   0.219E-06 -.126E-06 -.104E-04
   0.177E-02 0.111E-02 0.238E+03   -.168E-02 -.744E-03 -.239E+03   -.165E-03 -.536E-03 0.587E+00   0.391E-07 0.431E-06 0.116E-04
   -.316E-02 -.887E-02 -.698E+03   0.332E-02 0.939E-02 0.698E+03   0.769E-04 -.315E-03 0.437E+00   0.111E-06 -.151E-06 -.106E-04
   0.675E-02 0.123E-01 0.140E+04   -.670E-02 -.122E-01 -.141E+04   -.760E-04 -.162E-03 0.124E+02   -.447E-07 0.249E-06 -.333E-04
   0.104E-02 0.104E-01 -.121E+04   -.904E-03 -.108E-01 0.122E+04   0.104E-03 0.584E-03 -.770E+01   -.217E-06 -.353E-06 -.188E-04
   0.779E-02 -.450E-02 -.242E+03   -.824E-02 0.476E-02 0.243E+03   0.436E-03 -.252E-03 -.640E+00   0.179E-08 -.103E-08 -.459E-05
   0.112E-01 -.393E-02 0.700E+03   -.120E-01 0.372E-02 -.700E+03   0.541E-03 0.642E-03 -.140E+00   0.144E-06 0.206E-06 0.101E-04
   0.101E-02 0.112E-01 0.121E+04   -.113E-02 -.110E-01 -.122E+04   0.154E-03 -.485E-03 0.723E+01   0.194E-06 0.407E-06 -.110E-04
   0.955E-03 0.137E-01 -.140E+04   -.124E-02 -.133E-01 0.141E+04   0.216E-03 -.396E-03 -.125E+02   0.600E-08 -.124E-07 -.107E-04
   -.336E-02 0.194E-02 0.238E+03   0.362E-02 -.209E-02 -.239E+03   -.308E-03 0.178E-03 0.588E+00   -.124E-06 0.717E-07 0.115E-04
   -.329E-02 0.190E-02 -.698E+03   0.361E-02 -.208E-02 0.698E+03   -.530E-03 0.306E-03 0.437E+00   -.261E-06 0.151E-06 -.109E-04
   -.121E-02 0.699E-03 0.140E+04   0.124E-02 -.716E-03 -.141E+04   -.623E-04 0.360E-04 0.124E+02   0.114E-06 -.659E-07 -.331E-04
   0.464E-02 -.268E-02 -.121E+04   -.501E-02 0.289E-02 0.122E+04   0.244E-03 -.141E-03 -.770E+01   -.269E-07 0.155E-07 -.196E-04
   0.366E-02 0.126E-01 -.242E+03   -.399E-02 -.134E-01 0.243E+03   0.218E-03 0.700E-03 -.638E+00   -.149E-06 0.214E-06 -.478E-05
   -.397E-02 0.229E-02 0.700E+03   0.364E-02 -.210E-02 -.700E+03   0.502E-03 -.290E-03 -.142E+00   -.329E-06 0.190E-06 0.981E-05
   -.898E-02 0.519E-02 0.121E+04   0.864E-02 -.499E-02 -.122E+04   0.582E-03 -.336E-03 0.723E+01   -.586E-07 0.338E-07 -.110E-04
   -.118E-01 0.682E-02 -.140E+04   0.109E-01 -.632E-02 0.141E+04   0.807E-03 -.466E-03 -.125E+02   -.191E-06 0.111E-06 -.102E-04
   -.153E-02 0.265E-02 0.238E+03   0.152E-02 -.274E-02 -.239E+03   0.870E-04 0.184E-03 0.587E+00   -.150E-06 0.871E-07 0.114E-04
   0.665E-02 0.668E-02 -.698E+03   -.702E-02 -.705E-02 0.698E+03   0.269E-03 0.519E-03 0.437E+00   0.521E-06 0.326E-06 -.107E-04
   -.753E-02 -.311E-02 0.140E+04   0.747E-02 0.301E-02 -.141E+04   0.884E-04 0.152E-03 0.124E+02   -.346E-07 -.635E-07 -.332E-04
   -.518E-02 -.100E-01 -.121E+04   0.532E-02 0.104E-01 0.122E+04   -.193E-03 -.323E-03 -.770E+01   0.283E-06 0.359E-06 -.191E-04
   -.898E-02 0.518E-02 -.242E+03   0.947E-02 -.547E-02 0.243E+03   -.456E-03 0.263E-03 -.638E+00   -.144E-06 0.833E-07 -.498E-05
   0.927E-02 -.172E-04 0.700E+03   -.958E-02 0.121E-02 -.700E+03   -.144E-03 -.140E-02 -.141E+00   0.238E-06 0.365E-07 0.991E-05
   0.182E-01 0.240E-01 0.121E+04   -.191E-01 -.245E-01 -.122E+04   0.679E-03 0.162E-03 0.723E+01   -.113E-06 0.206E-06 -.109E-04
   0.104E-01 0.178E-01 -.140E+04   -.102E-01 -.173E-01 0.141E+04   -.157E-03 -.482E-03 -.125E+02   0.256E-06 0.120E-06 -.104E-04
   0.157E-02 0.313E-02 0.238E+03   -.131E-02 -.298E-02 -.239E+03   -.342E-03 -.183E-03 0.588E+00   0.238E-06 0.197E-06 0.114E-04
   -.372E-02 0.211E-02 -.698E+03   0.405E-02 -.230E-02 0.698E+03   -.128E-03 0.497E-03 0.437E+00   0.771E-07 0.122E-06 -.107E-04
   0.659E-02 0.492E-02 0.140E+04   -.658E-02 -.493E-02 -.141E+04   -.501E-04 0.261E-04 0.124E+02   -.120E-07 -.195E-06 -.332E-04
   -.567E-03 -.184E-02 -.121E+04   0.612E-03 0.196E-02 0.122E+04   0.167E-03 0.112E-03 -.770E+01   -.148E-06 -.456E-07 -.192E-04
   0.805E-02 0.151E-01 -.242E+03   -.855E-02 -.160E-01 0.243E+03   0.512E-03 0.874E-03 -.639E+00   0.150E-06 0.270E-06 -.471E-05
   0.247E-02 0.646E-02 0.700E+03   -.240E-02 -.615E-02 -.700E+03   -.108E-03 -.475E-03 -.142E+00   -.198E-07 0.206E-06 0.999E-05
 -----------------------------------------------------------------------------------------------
   -.103E-01 0.596E-02 0.330E+01   0.720E-12 0.616E-12 0.148E-11   0.103E-01 -.596E-02 -.330E+01   -.120E-06 0.695E-07 -.623E-03
 
 
 POSITION                                       TOTAL-FORCE (eV/Angst)
 -----------------------------------------------------------------------------------
     -5.79909     10.04433      9.77505        -0.000183      0.000106      0.016545
      1.93303      1.11605      6.56724        -0.000020     -0.000369      0.005159
     -0.00000      2.23205      3.36750        -0.000041      0.000151      0.023455
     -1.93304     10.04430      9.77504         0.000519      0.000537      0.016622
      5.79911      1.11606      6.56717        -0.000169     -0.000526      0.005933
      3.86603      2.23205      3.36750         0.000549      0.000244      0.023279
      1.93304     10.04433      9.77505        -0.000363      0.000004      0.016509
      9.66515      1.11605      6.56722         0.000330     -0.000191      0.005493
      7.73217      2.23205      3.36750        -0.000180      0.000104      0.023100
     -1.93302      3.34811      9.77505        -0.000185      0.000312      0.016509
     -0.00000      4.46412      6.56719         0.000014      0.000237      0.005581
     -1.93307      5.58023      3.36750         0.000208     -0.000552      0.023633
      1.93303      3.34809      9.77503         0.000516      0.000743      0.016601
      3.86609      4.46414      6.56713        -0.000152      0.000088      0.006342
      1.93296      5.58023      3.36750         0.000797     -0.000460      0.023463
      5.79911      3.34811      9.77504        -0.000372      0.000215      0.016483
      7.73212      4.46413      6.56717         0.000371      0.000409      0.005933
      5.79910      5.58023      3.36750         0.000063     -0.000597      0.023279
     -3.86604      6.69625      9.77504        -0.000206     -0.000718      0.016622
     -1.93303      7.81226      6.56726        -0.000066      0.000038      0.004820
     -3.86609      8.92831      3.36750        -0.000009      0.000005      0.023811
      0.00001      6.69622      9.77503         0.000499     -0.000288      0.016708
      1.93305      7.81227      6.56719        -0.000198     -0.000131      0.005581
     -0.00006      8.92831      3.36750         0.000582      0.000096      0.023633
      3.86608      6.69624      9.77503        -0.000386     -0.000818      0.016601
      5.79909      7.81226      6.56724         0.000309      0.000202      0.005159
      3.86609      8.92831      3.36750        -0.000151     -0.000040      0.023455
      0.00000      0.00000      2.57840         0.000032     -0.000019     -0.218358
     -5.79908     10.04432     12.14004        -0.000030      0.000017      0.011019
     -0.00001      2.23205      5.77164        -0.000017      0.000082     -0.016830
      1.93304      1.11605      8.96661        -0.000165     -0.000328      0.012801
     -0.00000      2.23205      1.00000        -0.000029      0.000022     -0.039272
      0.00000      2.23209     10.60099        -0.000092     -0.000298     -0.006400
     -5.79910     10.04433      7.36933        -0.000100      0.000058      0.003410
      1.93301      1.11603      4.15660         0.000126      0.000110      0.208314
      3.86603      0.00000      2.57840         0.000235      0.000088     -0.218191
     -1.93313     10.04433     12.14002        -0.000023      0.000064      0.011010
      3.86606      2.23203      5.77162         0.000104      0.000153     -0.016973
      5.79911      1.11606      8.96661        -0.000057     -0.000303      0.012648
      3.86603      2.23205      1.00000         0.000027      0.000051     -0.039173
      3.86606      2.23208     10.60096        -0.000021     -0.000290     -0.006299
     -1.93303     10.04432      7.36932         0.000045      0.000146      0.003311
      5.79916      1.11603      4.15660        -0.000492     -0.000007      0.208220
      7.73217      0.00000      2.57840        -0.000274     -0.000146     -0.218283
      7.73224      0.00002     12.14002         0.000054      0.000035      0.011084
      7.73216      2.23206      5.77165        -0.000049      0.000028     -0.016907
      9.66513      1.11606      8.96663         0.000251     -0.000145      0.012727
      7.73217      2.23205      1.00000        -0.000030      0.000017     -0.039193
      7.73210      2.23209     10.60099         0.000247     -0.000143     -0.006218
      1.93303     10.04432      7.36931         0.000011      0.000150      0.003095
      9.66519      1.11603      4.15660        -0.000071      0.000041      0.208409
     -1.93301      3.34808      2.57840        -0.000010      0.000311     -0.218283
      9.66521      3.34801     12.14002        -0.000003     -0.000064      0.011084
     -1.93303      5.58020      5.77161        -0.000052     -0.000110     -0.016895
      0.00002      4.46412      8.96659        -0.000181      0.000019      0.012725
     -1.93307      5.58023      1.00000        -0.000030     -0.000045     -0.039252
     -1.93301      5.58019     10.60096        -0.000096      0.000010     -0.006479
     -1.93302      3.34813      7.36931        -0.000124     -0.000085      0.003095
      0.00000      4.46410      4.15660        -0.000043      0.000496      0.208124
      1.93301      3.34808      2.57840         0.000192      0.000416     -0.218116
      1.93296      3.34801     12.14001         0.000004     -0.000022      0.011065
      1.93304      5.58019      5.77159         0.000070     -0.000040     -0.017038
      3.86609      4.46413      8.96659        -0.000070      0.000040      0.012567
      1.93296      5.58023      1.00000         0.000026     -0.000015     -0.039153
      1.93304      5.58018     10.60092        -0.000032      0.000018     -0.006381
      1.93305      3.34811      7.36929         0.000022      0.000002      0.002997
      3.86614      4.46410      4.15660        -0.000656      0.000379      0.208031
      5.79916      3.34808      2.57840        -0.000316      0.000183     -0.218208
      5.79924      3.34803     12.14000         0.000081     -0.000047      0.011140
      5.79913      5.58022      5.77162        -0.000081     -0.000167     -0.016973
      7.73212      4.46413      8.96661         0.000234      0.000201      0.012648
      5.79910      5.58023      1.00000        -0.000031     -0.000049     -0.039173
      5.79909      5.58019     10.60096         0.000240      0.000163     -0.006299
      5.79910      3.34811      7.36929        -0.000011      0.000006      0.002778
      7.73217      4.46410      4.15660        -0.000239      0.000430      0.208220
     -3.86609      6.69626      2.57840         0.000041     -0.000248     -0.218191
     -3.86611      6.69631     12.14002        -0.000067     -0.000012      0.011010
     -3.86607      8.92830      5.77164        -0.000051      0.000029     -0.016752
     -1.93301      7.81225      8.96659        -0.000207      0.000120      0.012879
     -3.86609      8.92831      1.00000        -0.000032      0.000019     -0.039351
     -3.86605      8.92829     10.60100        -0.000126      0.000073     -0.006579
     -3.86605      6.69623      7.36932        -0.000104     -0.000112      0.003311
     -1.93307      7.81228      4.15660         0.000166     -0.000096      0.208220
     -0.00006      6.69626      2.57840         0.000243     -0.000140     -0.218024
     -0.00016      6.69632     12.14001        -0.000063      0.000037      0.010992
     -0.00001      8.92829      5.77161         0.000069      0.000100     -0.016895
      1.93307      7.81226      8.96659        -0.000107      0.000147      0.012725
     -0.00006      8.92831      1.00000         0.000024      0.000048     -0.039252
      0.00001      8.92828     10.60096        -0.000057      0.000079     -0.006479
      0.00002      6.69621      7.36930         0.000038     -0.000022      0.003219
      1.93307      7.81228      4.15660        -0.000452     -0.000211      0.208124
      3.86609      6.69626      2.57840        -0.000264     -0.000375     -0.218116
      3.86612      6.69633     12.14001         0.000021      0.000007      0.011065
      3.86609      8.92832      5.77164        -0.000080     -0.000026     -0.016830
      5.79909      7.81225      8.96661         0.000202      0.000307      0.012801
      3.86609      8.92831      1.00000        -0.000033      0.000014     -0.039272
      3.86605      8.92829     10.60099         0.000212      0.000228     -0.006400
      3.86607      6.69621      7.36929         0.000009     -0.000020      0.002997
      5.79910      7.81228      4.15660        -0.000032     -0.000164      0.208314
 -----------------------------------------------------------------------------------
    total drift:                                0.000001     -0.000001      0.000732


--------------------------------------------------------------------------------------------------------



  FREE ENERGIE OF THE ION-ELECTRON SYSTEM (eV)
  ---------------------------------------------------
  free  energy   TOTEN  =      -694.40294622 eV

  energy  without entropy=     -694.40294622  energy(sigma->0) =     -694.40294622
 
 d Force = 0.1257971E-02[-0.756E-05, 0.252E-02]  d Energy = 0.1261674E-02-0.370E-05
 d Force =-0.6605967E+02[-0.660E+02,-0.661E+02]  d Ewald  =-0.6605968E+02 0.101E-04


--------------------------------------------------------------------------------------------------------


    POTLOK:  cpu time      1.2731: real time      1.2733


--------------------------------------------------------------------------------------------------------




--------------------------------------------------------------------------------------------------------


  
 reached required accuracy - stopping structural energy minimisation
     LOOP+:  cpu time    551.3121: real time    551.6351
    4ORBIT:  cpu time      0.0000: real time      0.0000

 total amount of memory used by VASP MPI-rank0   165545. kBytes
=======================================================================

   base      :      30000. kBytes
   nonl-proj :      59971. kBytes
   fftplans  :      18135. kBytes
   grid      :      31193. kBytes
   one-center:       2457. kBytes
   wavefun   :      23789. kBytes
 
  
  
 General timing and accounting informations for this job:
 ========================================================
  
                  Total CPU time used (sec):     9814.712
                            User time (sec):     9738.656
                          System time (sec):       76.056
                         Elapsed time (sec):     9821.839
  
                   Maximum memory used (kb):      376760.
                   Average memory used (kb):          N/A
  
                          Minor page faults:      1759251
                          Major page faults:         1688
                 Voluntary context switches:         3112
