<?xml version="1.0" encoding="ISO-8859-1"?>
<modeling>
 <generator>
  <i name="program" type="string">vasp </i>
  <i name="version" type="string">6.4.3  </i>
  <i name="subversion" type="string">19Mar24 (build Mar 01 2025 17:53:50) complex                          parallel </i>
  <i name="platform" type="string">Shaheen </i>
  <i name="date" type="string">2025 04 20 </i>
  <i name="time" type="string">05:04:38 </i>
 </generator>
 <incar>
  <i type="int" name="ISTART">     1</i>
  <i type="string" name="PREC">Accurate   (Precision level: Normal or Accurate, set Accurate when perform structure lattice relaxation calculation)</i>
  <i type="logical" name="ADDGRID"> T  </i>
  <i type="int" name="ISPIN">     2</i>
  <i type="int" name="NELM">    90</i>
  <i type="int" name="NELMIN">     6</i>
  <i type="int" name="IBRION">     2</i>
  <i name="EDIFF">      0.00000100</i>
  <i name="EDIFFG">     -0.02000000</i>
  <i type="int" name="NSW">   300</i>
  <i type="int" name="ISIF">     2</i>
  <i name="ENCUT">    520.00000000</i>
  <v name="MAGMOM">      1.00000000      1.00000000      1.00000000      1.00000000      1.00000000      1.00000000      1.00000000      1.00000000      1.00000000      1.00000000      1.00000000      1.00000000      1.00000000      1.00000000      1.00000000      1.00000000      1.00000000      1.00000000      1.00000000      1.00000000
      1.00000000      1.00000000      1.00000000      1.00000000      1.00000000      1.00000000      1.00000000      0.60000000      0.60000000      0.60000000      0.60000000      0.60000000      0.60000000      0.60000000      0.60000000      0.60000000      0.60000000      0.60000000      0.60000000      0.60000000
      0.60000000      0.60000000      0.60000000      0.60000000      0.60000000      0.60000000      0.60000000      0.60000000      0.60000000      0.60000000      0.60000000      0.60000000      0.60000000      0.60000000      0.60000000      0.60000000      0.60000000      0.60000000      0.60000000      0.60000000
      0.60000000      0.60000000      0.60000000      0.60000000      0.60000000      0.60000000      0.60000000      0.60000000      0.60000000      0.60000000      0.60000000      0.60000000      0.60000000      0.60000000      0.60000000      0.60000000      0.60000000      0.60000000      0.60000000      0.60000000
      0.60000000      0.60000000      0.60000000      0.60000000      0.60000000      0.60000000      0.60000000      0.60000000      0.60000000      0.60000000      0.60000000      0.60000000      0.60000000      0.60000000      0.60000000      0.60000000      0.60000000      0.60000000      0.60000000</v>
  <i type="logical" name="LREAL"> F  </i>
  <i type="int" name="ISMEAR">     0</i>
  <i name="SIGMA">      0.05000000</i>
  <i type="int" name="LMAXMIX">     6</i>
  <i type="logical" name="LWAVE"> F  </i>
  <i type="logical" name="LCHARG"> F  </i>
  <i type="logical" name="LASPH"> T  </i>
  <i type="logical" name="LDAU"> T  </i>
  <i type="int" name="LDAUTYPE">     2</i>
  <v type="int" name="LDAUL">     3    -1</v>
  <v name="LDAUU">      5.00000000      0.00000000</v>
  <v name="LDAUJ">      0.00000000      0.00000000</v>
 </incar>
 <primitive_cell>
  <structure name="primitive_cell" >
   <crystal>
    <varray name="basis" >
     <v>      11.59820000       0.00000000       0.00000000 </v>
     <v>      -5.79910000      10.04433584       0.00000000 </v>
     <v>       0.00000000       0.00000000      21.04820000 </v>
    </varray>
    <i name="volume">   2452.03565189 </i>
    <varray name="rec_basis" >
     <v>       0.08622028       0.04977930       0.00000000 </v>
     <v>       0.00000000       0.09955860       0.00000000 </v>
     <v>       0.00000000       0.00000000       0.04751000 </v>
    </varray>
   </crystal>
   <varray name="positions" >
    <v>       0.00000000       0.00000000       0.45993000 </v>
    <v>       0.22222000       0.11111000       0.30996000 </v>
    <v>       0.11111000       0.22222000       0.15999000 </v>
    <v>       0.33333000       0.00000000       0.45993000 </v>
    <v>       0.55556000       0.11111000       0.30996000 </v>
    <v>       0.44444000       0.22222000       0.15999000 </v>
    <v>       0.66667000       0.00000000       0.45993000 </v>
    <v>       0.88889000       0.11111000       0.30996000 </v>
    <v>       0.77778000       0.22222000       0.15999000 </v>
    <v>       1.00000000       0.33333000       0.45993000 </v>
    <v>       0.22222000       0.44444000       0.30996000 </v>
    <v>       0.11111000       0.55556000       0.15999000 </v>
    <v>       0.33333000       0.33333000       0.45993000 </v>
    <v>       0.55556000       0.44444000       0.30996000 </v>
    <v>       0.44444000       0.55556000       0.15999000 </v>
    <v>       0.66667000       0.33333000       0.45993000 </v>
    <v>       0.88889000       0.44444000       0.30996000 </v>
    <v>       0.77778000       0.55556000       0.15999000 </v>
    <v>       1.00000000       0.66667000       0.45993000 </v>
    <v>       0.22222000       0.77778000       0.30996000 </v>
    <v>       0.11111000       0.88889000       0.15999000 </v>
    <v>       0.33333000       0.66667000       0.45993000 </v>
    <v>       0.55556000       0.77778000       0.30996000 </v>
    <v>       0.44444000       0.88889000       0.15999000 </v>
    <v>       0.66667000       0.66667000       0.45993000 </v>
    <v>       0.88889000       0.77778000       0.30996000 </v>
    <v>       0.77778000       0.88889000       0.15999000 </v>
    <v>       0.00000000       0.00000000       0.12250000 </v>
    <v>       0.00000000       0.00000000       0.57241000 </v>
    <v>       0.11111000       0.22222000       0.27247000 </v>
    <v>       0.22222000       0.11111000       0.42244000 </v>
    <v>       0.11111000       0.22222000       0.04751000 </v>
    <v>       0.11111000       0.22222000       0.49742000 </v>
    <v>       0.00000000       0.00000000       0.34745000 </v>
    <v>       0.22222000       0.11111000       0.19748000 </v>
    <v>       0.33333000       0.00000000       0.12250000 </v>
    <v>       0.33333000       0.00000000       0.57241000 </v>
    <v>       0.44444000       0.22222000       0.27247000 </v>
    <v>       0.55556000       0.11111000       0.42244000 </v>
    <v>       0.44444000       0.22222000       0.04751000 </v>
    <v>       0.44444000       0.22222000       0.49742000 </v>
    <v>       0.33333000       0.00000000       0.34745000 </v>
    <v>       0.55556000       0.11111000       0.19748000 </v>
    <v>       0.66667000       0.00000000       0.12250000 </v>
    <v>       0.66667000       0.00000000       0.57241000 </v>
    <v>       0.77778000       0.22222000       0.27247000 </v>
    <v>       0.88889000       0.11111000       0.42244000 </v>
    <v>       0.77778000       0.22222000       0.04751000 </v>
    <v>       0.77778000       0.22222000       0.49742000 </v>
    <v>       0.66667000       0.00000000       0.34745000 </v>
    <v>       0.88889000       0.11111000       0.19748000 </v>
    <v>       1.00000000       0.33333000       0.12250000 </v>
    <v>       1.00000000       0.33333000       0.57241000 </v>
    <v>       0.11111000       0.55556000       0.27247000 </v>
    <v>       0.22222000       0.44444000       0.42244000 </v>
    <v>       0.11111000       0.55556000       0.04751000 </v>
    <v>       0.11111000       0.55556000       0.49742000 </v>
    <v>       1.00000000       0.33333000       0.34745000 </v>
    <v>       0.22222000       0.44444000       0.19748000 </v>
    <v>       0.33333000       0.33333000       0.12250000 </v>
    <v>       0.33333000       0.33333000       0.57241000 </v>
    <v>       0.44444000       0.55556000       0.27247000 </v>
    <v>       0.55556000       0.44444000       0.42244000 </v>
    <v>       0.44444000       0.55556000       0.04751000 </v>
    <v>       0.44444000       0.55556000       0.49742000 </v>
    <v>       0.33333000       0.33333000       0.34745000 </v>
    <v>       0.55556000       0.44444000       0.19748000 </v>
    <v>       0.66667000       0.33333000       0.12250000 </v>
    <v>       0.66667000       0.33333000       0.57241000 </v>
    <v>       0.77778000       0.55556000       0.27247000 </v>
    <v>       0.88889000       0.44444000       0.42244000 </v>
    <v>       0.77778000       0.55556000       0.04751000 </v>
    <v>       0.77778000       0.55556000       0.49742000 </v>
    <v>       0.66667000       0.33333000       0.34745000 </v>
    <v>       0.88889000       0.44444000       0.19748000 </v>
    <v>       1.00000000       0.66667000       0.12250000 </v>
    <v>       1.00000000       0.66667000       0.57241000 </v>
    <v>       0.11111000       0.88889000       0.27247000 </v>
    <v>       0.22222000       0.77778000       0.42244000 </v>
    <v>       0.11111000       0.88889000       0.04751000 </v>
    <v>       0.11111000       0.88889000       0.49742000 </v>
    <v>       1.00000000       0.66667000       0.34745000 </v>
    <v>       0.22222000       0.77778000       0.19748000 </v>
    <v>       0.33333000       0.66667000       0.12250000 </v>
    <v>       0.33333000       0.66667000       0.57241000 </v>
    <v>       0.44444000       0.88889000       0.27247000 </v>
    <v>       0.55556000       0.77778000       0.42244000 </v>
    <v>       0.44444000       0.88889000       0.04751000 </v>
    <v>       0.44444000       0.88889000       0.49742000 </v>
    <v>       0.33333000       0.66667000       0.34745000 </v>
    <v>       0.55556000       0.77778000       0.19748000 </v>
    <v>       0.66667000       0.66667000       0.12250000 </v>
    <v>       0.66667000       0.66667000       0.57241000 </v>
    <v>       0.77778000       0.88889000       0.27247000 </v>
    <v>       0.88889000       0.77778000       0.42244000 </v>
    <v>       0.77778000       0.88889000       0.04751000 </v>
    <v>       0.77778000       0.88889000       0.49742000 </v>
    <v>       0.66667000       0.66667000       0.34745000 </v>
    <v>       0.88889000       0.77778000       0.19748000 </v>
   </varray>
  </structure>
  <varray name="primitive_index" >
   <v type="int" >        1 </v>
   <v type="int" >        2 </v>
   <v type="int" >        3 </v>
   <v type="int" >        4 </v>
   <v type="int" >        5 </v>
   <v type="int" >        6 </v>
   <v type="int" >        7 </v>
   <v type="int" >        8 </v>
   <v type="int" >        9 </v>
   <v type="int" >       10 </v>
   <v type="int" >       11 </v>
   <v type="int" >       12 </v>
   <v type="int" >       13 </v>
   <v type="int" >       14 </v>
   <v type="int" >       15 </v>
   <v type="int" >       16 </v>
   <v type="int" >       17 </v>
   <v type="int" >       18 </v>
   <v type="int" >       19 </v>
   <v type="int" >       20 </v>
   <v type="int" >       21 </v>
   <v type="int" >       22 </v>
   <v type="int" >       23 </v>
   <v type="int" >       24 </v>
   <v type="int" >       25 </v>
   <v type="int" >       26 </v>
   <v type="int" >       27 </v>
   <v type="int" >       28 </v>
   <v type="int" >       29 </v>
   <v type="int" >       30 </v>
   <v type="int" >       31 </v>
   <v type="int" >       32 </v>
   <v type="int" >       33 </v>
   <v type="int" >       34 </v>
   <v type="int" >       35 </v>
   <v type="int" >       36 </v>
   <v type="int" >       37 </v>
   <v type="int" >       38 </v>
   <v type="int" >       39 </v>
   <v type="int" >       40 </v>
   <v type="int" >       41 </v>
   <v type="int" >       42 </v>
   <v type="int" >       43 </v>
   <v type="int" >       44 </v>
   <v type="int" >       45 </v>
   <v type="int" >       46 </v>
   <v type="int" >       47 </v>
   <v type="int" >       48 </v>
   <v type="int" >       49 </v>
   <v type="int" >       50 </v>
   <v type="int" >       51 </v>
   <v type="int" >       52 </v>
   <v type="int" >       53 </v>
   <v type="int" >       54 </v>
   <v type="int" >       55 </v>
   <v type="int" >       56 </v>
   <v type="int" >       57 </v>
   <v type="int" >       58 </v>
   <v type="int" >       59 </v>
   <v type="int" >       60 </v>
   <v type="int" >       61 </v>
   <v type="int" >       62 </v>
   <v type="int" >       63 </v>
   <v type="int" >       64 </v>
   <v type="int" >       65 </v>
   <v type="int" >       66 </v>
   <v type="int" >       67 </v>
   <v type="int" >       68 </v>
   <v type="int" >       69 </v>
   <v type="int" >       70 </v>
   <v type="int" >       71 </v>
   <v type="int" >       72 </v>
   <v type="int" >       73 </v>
   <v type="int" >       74 </v>
   <v type="int" >       75 </v>
   <v type="int" >       76 </v>
   <v type="int" >       77 </v>
   <v type="int" >       78 </v>
   <v type="int" >       79 </v>
   <v type="int" >       80 </v>
   <v type="int" >       81 </v>
   <v type="int" >       82 </v>
   <v type="int" >       83 </v>
   <v type="int" >       84 </v>
   <v type="int" >       85 </v>
   <v type="int" >       86 </v>
   <v type="int" >       87 </v>
   <v type="int" >       88 </v>
   <v type="int" >       89 </v>
   <v type="int" >       90 </v>
   <v type="int" >       91 </v>
   <v type="int" >       92 </v>
   <v type="int" >       93 </v>
   <v type="int" >       94 </v>
   <v type="int" >       95 </v>
   <v type="int" >       96 </v>
   <v type="int" >       97 </v>
   <v type="int" >       98 </v>
   <v type="int" >       99 </v>
  </varray>
 </primitive_cell>
 <kpoints>
  <generation param="Monkhorst-Pack">
   <v type="int" name="divisions">       3        3        1 </v>
   <v name="usershift">      0.00000000       0.00000000       0.00000000 </v>
   <v name="genvec1">      0.33333333      -0.00000000       0.00000000 </v>
   <v name="genvec2">      0.00000000       0.33333333       0.00000000 </v>
   <v name="genvec3">      0.00000000       0.00000000       1.00000000 </v>
   <v name="shift">      0.00000000       0.00000000       0.00000000 </v>
  </generation>
  <varray name="kpointlist" >
   <v>       0.00000000       0.00000000       0.00000000 </v>
   <v>       0.33333333      -0.00000000       0.00000000 </v>
   <v>      -0.33333333       0.33333333       0.00000000 </v>
   <v>       0.33333333       0.33333333       0.00000000 </v>
  </varray>
  <varray name="weights" >
   <v>       0.11111111 </v>
   <v>       0.44444444 </v>
   <v>       0.22222222 </v>
   <v>       0.22222222 </v>
  </varray>
 </kpoints>
 <parameters>
  <separator name="general" >
   <i type="string" name="SYSTEM">unknown system</i>
   <i type="logical" name="LCOMPAT"> F  </i>
  </separator>
  <separator name="electronic" >
   <i type="string" name="PREC">accura</i>
   <i name="ENMAX">    520.00000000</i>
   <i name="ENAUG">    605.39200000</i>
   <i name="EDIFF">      0.00000100</i>
   <i type="int" name="IALGO">    38</i>
   <i type="int" name="IWAVPR">    11</i>
   <i type="int" name="NBANDS">   528</i>
   <i type="int" name="NBANDSLOW">    -1</i>
   <i type="int" name="NBANDSHIGH">    -1</i>
   <i name="NELECT">    756.00000000</i>
   <i type="int" name="TURBO">     0</i>
   <i type="int" name="IRESTART">     0</i>
   <i type="int" name="NREBOOT">     0</i>
   <i type="int" name="NMIN">     0</i>
   <i name="EREF">      0.00000000</i>
   <separator name="electronic smearing" >
    <i type="int" name="ISMEAR">     0</i>
    <i name="SIGMA">      0.05000000</i>
    <i name="KSPACING">      0.50000000</i>
    <i type="logical" name="KGAMMA"> T  </i>
    <i type="logical" name="KBLOWUP"> T  </i>
   </separator>
   <separator name="electronic projectors" >
    <i type="logical" name="LREAL"> F  </i>
    <v name="ROPT">      0.00000000      0.00000000</v>
    <i type="int" name="LMAXPAW">  -100</i>
    <i type="int" name="LMAXMIX">     6</i>
    <i type="logical" name="NLSPLINE"> F  </i>
   </separator>
   <separator name="electronic startup" >
    <i type="int" name="ISTART">     0</i>
    <i type="int" name="ICHARG">     2</i>
    <i type="int" name="INIWAV">     1</i>
   </separator>
   <separator name="electronic spin" >
    <i type="int" name="ISPIN">     2</i>
    <i type="logical" name="LNONCOLLINEAR"> F  </i>
    <v name="MAGMOM">      1.00000000      1.00000000      1.00000000      1.00000000      1.00000000      1.00000000      1.00000000      1.00000000      1.00000000      1.00000000      1.00000000      1.00000000      1.00000000      1.00000000      1.00000000      1.00000000      1.00000000      1.00000000      1.00000000      1.00000000
      1.00000000      1.00000000      1.00000000      1.00000000      1.00000000      1.00000000      1.00000000      0.60000000      0.60000000      0.60000000      0.60000000      0.60000000      0.60000000      0.60000000      0.60000000      0.60000000      0.60000000      0.60000000      0.60000000      0.60000000
      0.60000000      0.60000000      0.60000000      0.60000000      0.60000000      0.60000000      0.60000000      0.60000000      0.60000000      0.60000000      0.60000000      0.60000000      0.60000000      0.60000000      0.60000000      0.60000000      0.60000000      0.60000000      0.60000000      0.60000000
      0.60000000      0.60000000      0.60000000      0.60000000      0.60000000      0.60000000      0.60000000      0.60000000      0.60000000      0.60000000      0.60000000      0.60000000      0.60000000      0.60000000      0.60000000      0.60000000      0.60000000      0.60000000      0.60000000      0.60000000
      0.60000000      0.60000000      0.60000000      0.60000000      0.60000000      0.60000000      0.60000000      0.60000000      0.60000000      0.60000000      0.60000000      0.60000000      0.60000000      0.60000000      0.60000000      0.60000000      0.60000000      0.60000000      0.60000000</v>
    <i name="NUPDOWN">     -1.00000000</i>
    <i type="logical" name="LSORBIT"> F  </i>
    <v name="SAXIS">      0.00000000      0.00000000      1.00000000</v>
    <i type="logical" name="LSPIRAL"> F  </i>
    <v name="QSPIRAL">      0.00000000      0.00000000      0.00000000</v>
    <i type="logical" name="LZEROZ"> F  </i>
   </separator>
   <separator name="electronic exchange-correlation" >
    <i type="logical" name="LASPH"> T  </i>
   </separator>
   <separator name="electronic convergence" >
    <i type="int" name="NELM">    90</i>
    <i type="int" name="NELMDL">     0</i>
    <i type="int" name="NELMIN">     6</i>
    <i name="ENINI">    520.00000000</i>
    <separator name="electronic convergence detail" >
     <i type="logical" name="LDIAG"> T  </i>
     <i type="logical" name="LSUBROT"> F  </i>
     <i name="WEIMIN">      0.00100000</i>
     <i name="EBREAK">      0.00000000</i>
     <i name="DEPER">      0.30000000</i>
     <i type="int" name="NRMM">     4</i>
     <i name="TIME">      0.40000000</i>
    </separator>
   </separator>
   <separator name="electronic mixer" >
    <i name="AMIX">      0.40000000</i>
    <i name="BMIX">      1.00000000</i>
    <i name="AMIN">      0.10000000</i>
    <i name="AMIX_MAG">      1.60000000</i>
    <i name="BMIX_MAG">      1.00000000</i>
    <separator name="electronic mixer details" >
     <i type="int" name="IMIX">     4</i>
     <i type="logical" name="MIXFIRST"> F  </i>
     <i type="int" name="MAXMIX">   -45</i>
     <i name="WC">    100.00000000</i>
     <i type="int" name="INIMIX">     1</i>
     <i type="int" name="MIXPRE">     1</i>
     <i type="int" name="MREMOVE">     5</i>
    </separator>
   </separator>
   <separator name="electronic dipolcorrection" >
    <i type="logical" name="LDIPOL"> F  </i>
    <i type="logical" name="LMONO"> F  </i>
    <i type="int" name="IDIPOL">     0</i>
    <i name="EPSILON">      1.00000000</i>
    <v name="DIPOL">   -100.00000000   -100.00000000   -100.00000000</v>
    <i name="EFIELD">      0.00000000</i>
    <i type="logical" name="LVACPOTAV"> F  </i>
   </separator>
  </separator>
  <separator name="grids" >
   <i type="int" name="NGX">    90</i>
   <i type="int" name="NGY">    90</i>
   <i type="int" name="NGZ">   160</i>
   <i type="int" name="NGXF">   180</i>
   <i type="int" name="NGYF">   180</i>
   <i type="int" name="NGZF">   320</i>
   <i type="logical" name="ADDGRID"> T  </i>
  </separator>
  <separator name="ionic" >
   <i type="int" name="NSW">   300</i>
   <i type="int" name="IBRION">     2</i>
   <i type="int" name="MDALGO">     0</i>
   <i type="int" name="ISIF">     2</i>
   <i name="PSTRESS">      0.00000000</i>
   <i name="EDIFFG">     -0.02000000</i>
   <i type="int" name="NFREE">     1</i>
   <i name="POTIM">      0.50000000</i>
   <i name="SMASS">     -3.00000000</i>
   <i name="SCALEE">      1.00000000</i>
  </separator>
  <separator name="ionic md" >
   <i name="TEBEG">      0.00010000</i>
   <i name="TEEND">      0.00010000</i>
   <i type="int" name="NBLOCK">     1</i>
   <i type="int" name="KBLOCK">   300</i>
   <i type="int" name="NPACO">   256</i>
   <i name="APACO">     10.00000000</i>
  </separator>
  <separator name="symmetry" >
   <i type="int" name="ISYM">     2</i>
   <i name="SYMPREC">      0.00001000</i>
  </separator>
  <separator name="dos" >
   <i type="int" name="LORBIT">     0</i>
   <v name="RWIGS">     -1.00000000     -1.00000000</v>
   <i type="int" name="NEDOS">   301</i>
   <i name="EMIN">     10.00000000</i>
   <i name="EMAX">    -10.00000000</i>
   <i name="EFERMI">      0.00000000</i>
  </separator>
  <separator name="writing" >
   <i type="int" name="NWRITE">     2</i>
   <i type="logical" name="LWAVE"> F  </i>
   <i type="logical" name="LDOWNSAMPLE"> F  </i>
   <i type="logical" name="LCHARG"> F  </i>
   <i type="logical" name="LPARD"> F  </i>
   <i type="logical" name="LVTOT"> F  </i>
   <i type="logical" name="LVHAR"> F  </i>
   <i type="logical" name="LELF"> F  </i>
   <i type="logical" name="LOPTICS"> F  </i>
   <v name="STM">      0.00000000      0.00000000      0.00000000      0.00000000      0.00000000      0.00000000      0.00000000</v>
  </separator>
  <separator name="performance" >
   <i type="int" name="NPAR">    48</i>
   <i type="int" name="NSIM">     4</i>
   <i type="int" name="NBLK">    -1</i>
   <i type="logical" name="LPLANE"> T  </i>
   <i type="logical" name="LSCALAPACK"> T  </i>
   <i type="logical" name="LSCAAWARE"> T  </i>
   <i type="logical" name="LSCALU"> F  </i>
   <i type="logical" name="LASYNC"> F  </i>
   <i type="logical" name="LORBITALREAL"> F  </i>
  </separator>
  <separator name="miscellaneous" >
   <i type="int" name="IDIOT">     3</i>
   <i type="int" name="PHON_NSTRUCT">    -1</i>
   <i type="logical" name="LMUSIC"> F  </i>
   <v name="POMASS">    140.11500000     16.00000000</v>
   <v name="DARWINR">      0.00000000      0.00000000</v>
   <v name="DARWINV">      1.00000000      1.00000000</v>
   <i type="logical" name="LCORR"> T  </i>
  </separator>
  <i type="logical" name="GGA_COMPAT"> T  </i>
  <i type="logical" name="LBERRY"> F  </i>
  <i type="int" name="ICORELEVEL">     0</i>
  <i type="logical" name="LDAU"> T  </i>
  <v type="int" name="LDAUTYPE">     2</v>
  <v type="int" name="LDAUL">     3</v>
  <v name="LDAUU">      5.00000000</v>
  <v name="LDAUJ">      0.00000000</v>
  <i type="int" name="LDAUPRINT">     0</i>
  <i type="int" name="I_CONSTRAINED_M">     0</i>
  <separator name="electronic exchange-correlation" >
   <i type="string" name="GGA    ">PE</i>
   <i type="string" name="XC_C">1</i>
   <i type="int" name="VOSKOWN">     0</i>
   <i type="logical" name="LHFCALC"> F  </i>
   <i type="string" name="PRECFOCK"></i>
   <i type="logical" name="LSYMGRAD"> F  </i>
   <i type="logical" name="LHFONE"> F  </i>
   <i type="logical" name="LRHFCALC"> F  </i>
   <i type="logical" name="LTHOMAS"> F  </i>
   <i type="logical" name="LMODELHF"> F  </i>
   <i type="logical" name="LFOCKACE"> F  </i>
   <i name="ENCUT4O">     -1.00000000</i>
   <i type="int" name="EXXOEP">     0</i>
   <i type="int" name="FOURORBIT">     0</i>
   <i name="AEXX">      0.00000000</i>
   <i name="HFALPHA">      0.00000000</i>
   <i name="MCALPHA">      0.00000000</i>
   <i name="ALDAX">      1.00000000</i>
   <i name="AGGAX">      1.00000000</i>
   <i name="AMGGAX">      1.00000000</i>
   <i name="ALDAC">      1.00000000</i>
   <i name="AGGAC">      1.00000000</i>
   <i name="AMGGAC">      1.00000000</i>
   <i type="int" name="NKREDX">     1</i>
   <i type="int" name="NKREDY">     1</i>
   <i type="int" name="NKREDZ">     1</i>
   <i type="logical" name="SHIFTRED"> F  </i>
   <i type="logical" name="ODDONLY"> F  </i>
   <i type="logical" name="EVENONLY"> F  </i>
   <i type="int" name="LMAXFOCK">     0</i>
   <i type="int" name="NMAXFOCKAE">     0</i>
   <i type="logical" name="LFOCKAEDFT"> F  </i>
   <i name="HFSCREEN">      0.00000000</i>
   <i name="HFSCREENC">      0.00000000</i>
   <i type="int" name="NBANDSGWLOW">     0</i>
  </separator>
  <separator name="vdW DFT" >
   <i type="logical" name="LUSE_VDW"> F  </i>
   <i type="int" name="IVDW_NL">    -1</i>
   <i type="logical" name="LSPIN_VDW"> F  </i>
   <i name="ZAB_VDW">     -0.84910000</i>
   <i name="GAMMA_VDW">      1.39626340</i>
   <i name="ALPHA_VDW">      0.00000000</i>
   <i name="PARAM1">      0.12340000</i>
   <i name="PARAM2">      1.00000000</i>
   <i name="BPARAM">      6.30000000</i>
   <i name="CPARAM">      0.00930000</i>
  </separator>
  <separator name="model GW" >
   <i type="int" name="MODEL_GW">     0</i>
   <i name="MODEL_EPS0">     14.86082213</i>
   <i name="MODEL_ALPHA">      1.00000000</i>
  </separator>
  <separator name="linear response parameters" >
   <i type="logical" name="LEPSILON"> F  </i>
   <i type="logical" name="LRPA"> F  </i>
   <i type="logical" name="LNABLA"> F  </i>
   <i type="logical" name="LVEL"> F  </i>
   <i name="CSHIFT">      0.10000000</i>
   <i name="OMEGAMAX">     -1.00000000</i>
   <i name="DEG_THRESHOLD">      0.00200000</i>
   <i name="RTIME">     -0.10000000</i>
   <i name="WPLASMAI">      0.00000000</i>
   <v name="DFIELD">      0.00000000      0.00000000      0.00000000</v>
   <v name="WPLASMA">      0.00000000      0.00000000      0.00000000      0.00000000      0.00000000      0.00000000      0.00000000      0.00000000      0.00000000</v>
  </separator>
  <separator name="orbital magnetization" >
   <i type="logical" name="NUCIND"> F  </i>
   <v name="MAGPOS">      0.00000000      0.00000000      0.00000000</v>
   <i type="logical" name="LNICSALL"> T  </i>
   <i type="logical" name="ORBITALMAG"> F  </i>
   <i type="logical" name="LMAGBLOCH"> F  </i>
   <i type="logical" name="LCHIMAG"> F  </i>
   <i type="logical" name="LGAUGE"> T  </i>
   <i type="int" name="MAGATOM">     0</i>
   <v name="MAGDIPOL">      0.00000000      0.00000000      0.00000000</v>
   <v name="AVECCONST">      0.00000000      0.00000000      0.00000000</v>
  </separator>
  <separator name="response functions" >
   <i type="logical" name="LALL_IN_ONE"> F  </i>
   <i type="int" name="IALL_IN_ONE">    -1</i>
   <i type="int" name="NBANDS_WAVE">    -1</i>
   <i type="logical" name="LFINITE_TEMPERATURE"> F  </i>
   <i type="logical" name="LADDER"> F  </i>
   <i type="logical" name="LRPAFORCE"> F  </i>
   <i type="logical" name="LFXC"> F  </i>
   <i type="logical" name="LHARTREE"> T  </i>
   <i type="int" name="IBSE">     0</i>
   <v type="int" name="KPOINT">    -1     0     0     0</v>
   <i type="logical" name="LTCTC"> F  </i>
   <i type="logical" name="LTCTE"> F  </i>
   <i type="logical" name="LTETE"> F  </i>
   <i type="logical" name="LTRIPLET"> F  </i>
   <i type="logical" name="LFXCEPS"> F  </i>
   <i type="logical" name="LFXHEG"> F  </i>
   <i type="int" name="NATURALO">     2</i>
   <i type="logical" name="LHOLEGF"> F  </i>
   <i type="logical" name="L2ORDER"> F  </i>
   <i type="logical" name="LDMP1"> F  </i>
   <i type="logical" name="LMP2LT"> F  </i>
   <i type="logical" name="LSMP2LT"> F  </i>
   <i type="logical" name="LGWLF"> F  </i>
   <i name="ENCUTGW">     -1.60000002</i>
   <i name="ENCUTGWSOFT">     -1.60000002</i>
   <i name="ENCUTLF">     -1.00000000</i>
   <i type="logical" name="ESF_SPLINES"> F  </i>
   <i name="ESF_CONV">      0.01000000</i>
   <i type="int" name="ESF_NINTER">    15</i>
   <i type="int" name="LMAXMP2">    -1</i>
   <i name="SCISSOR">      0.00000000</i>
   <i type="int" name="NOMEGA">     0</i>
   <i type="int" name="NOMEGAR">     0</i>
   <i type="int" name="NBANDSGW">    -1</i>
   <i type="int" name="NBANDSO">    -1</i>
   <i type="int" name="NBANDSV">    -1</i>
   <i type="int" name="NELMGW">     1</i>
   <i type="int" name="NELMHF">     1</i>
   <i type="int" name="DIM">     3</i>
   <i type="int" name="IESPILON">     4</i>
   <i type="int" name="ANTIRES">     0</i>
   <i name="OMEGAMAX">    -30.00000000</i>
   <i name="OMEGAMIN">    -30.00000000</i>
   <i name="OMEGATL">   -200.00000000</i>
   <i type="int" name="OMEGAGRID">     0</i>
   <i name="CSHIFT">     -0.10000000</i>
   <i type="logical" name="LSELFENERGY"> F  </i>
   <i type="logical" name="LSPECTRAL"> F  </i>
   <i type="logical" name="LSPECTRALGW"> F  </i>
   <i type="logical" name="LSINGLES"> F  </i>
   <i type="logical" name="LFERMIGW"> F  </i>
   <i type="logical" name="ODDONLYGW"> F  </i>
   <i type="logical" name="EVENONLYGW"> F  </i>
   <i type="int" name="NKREDLFX">     1</i>
   <i type="int" name="NKREDLFY">     1</i>
   <i type="int" name="NKREDLFZ">     1</i>
   <i type="int" name="MAXMEM">  2800</i>
   <i type="int" name="TELESCOPE">     0</i>
   <i type="int" name="NTAUPAR">    -1</i>
   <i type="int" name="NOMEGAPAR">    -1</i>
   <i name="DAMP_NEWTON">      0.80000001</i>
   <i name="LAMBDA">      1.00000000</i>
  </separator>
  <separator name="External order field" >
   <i name="OFIELD_KAPPA">      0.00000000</i>
   <v name="OFIELD_K">      0.00000000      0.00000000      0.00000000</v>
   <i name="OFIELD_Q6_NEAR">      0.00000000</i>
   <i name="OFIELD_Q6_FAR">      0.00000000</i>
   <i name="OFIELD_A">      0.00000000</i>
  </separator>
  <separator name="optional k-points parameters" >
   <i type="int" name="KPOINTS_OPT_MODE">     1</i>
   <i type="logical" name="LKPOINTS_OPT"> F  </i>
  </separator>
 </parameters>
 <atominfo>
  <atoms>      99 </atoms>
  <types>       2 </types>
  <array name="atoms" >
   <dimension dim="1">ion</dimension>
   <field type="string">element</field>
   <field type="int">atomtype</field>
   <set>
    <rc><c>Ce</c><c>   1</c></rc>
    <rc><c>Ce</c><c>   1</c></rc>
    <rc><c>Ce</c><c>   1</c></rc>
    <rc><c>Ce</c><c>   1</c></rc>
    <rc><c>Ce</c><c>   1</c></rc>
    <rc><c>Ce</c><c>   1</c></rc>
    <rc><c>Ce</c><c>   1</c></rc>
    <rc><c>Ce</c><c>   1</c></rc>
    <rc><c>Ce</c><c>   1</c></rc>
    <rc><c>Ce</c><c>   1</c></rc>
    <rc><c>Ce</c><c>   1</c></rc>
    <rc><c>Ce</c><c>   1</c></rc>
    <rc><c>Ce</c><c>   1</c></rc>
    <rc><c>Ce</c><c>   1</c></rc>
    <rc><c>Ce</c><c>   1</c></rc>
    <rc><c>Ce</c><c>   1</c></rc>
    <rc><c>Ce</c><c>   1</c></rc>
    <rc><c>Ce</c><c>   1</c></rc>
    <rc><c>Ce</c><c>   1</c></rc>
    <rc><c>Ce</c><c>   1</c></rc>
    <rc><c>Ce</c><c>   1</c></rc>
    <rc><c>Ce</c><c>   1</c></rc>
    <rc><c>Ce</c><c>   1</c></rc>
    <rc><c>Ce</c><c>   1</c></rc>
    <rc><c>Ce</c><c>   1</c></rc>
    <rc><c>Ce</c><c>   1</c></rc>
    <rc><c>Ce</c><c>   1</c></rc>
    <rc><c>O </c><c>   2</c></rc>
    <rc><c>O </c><c>   2</c></rc>
    <rc><c>O </c><c>   2</c></rc>
    <rc><c>O </c><c>   2</c></rc>
    <rc><c>O </c><c>   2</c></rc>
    <rc><c>O </c><c>   2</c></rc>
    <rc><c>O </c><c>   2</c></rc>
    <rc><c>O </c><c>   2</c></rc>
    <rc><c>O </c><c>   2</c></rc>
    <rc><c>O </c><c>   2</c></rc>
    <rc><c>O </c><c>   2</c></rc>
    <rc><c>O </c><c>   2</c></rc>
    <rc><c>O </c><c>   2</c></rc>
    <rc><c>O </c><c>   2</c></rc>
    <rc><c>O </c><c>   2</c></rc>
    <rc><c>O </c><c>   2</c></rc>
    <rc><c>O </c><c>   2</c></rc>
    <rc><c>O </c><c>   2</c></rc>
    <rc><c>O </c><c>   2</c></rc>
    <rc><c>O </c><c>   2</c></rc>
    <rc><c>O </c><c>   2</c></rc>
    <rc><c>O </c><c>   2</c></rc>
    <rc><c>O </c><c>   2</c></rc>
    <rc><c>O </c><c>   2</c></rc>
    <rc><c>O </c><c>   2</c></rc>
    <rc><c>O </c><c>   2</c></rc>
    <rc><c>O </c><c>   2</c></rc>
    <rc><c>O </c><c>   2</c></rc>
    <rc><c>O </c><c>   2</c></rc>
    <rc><c>O </c><c>   2</c></rc>
    <rc><c>O </c><c>   2</c></rc>
    <rc><c>O </c><c>   2</c></rc>
    <rc><c>O </c><c>   2</c></rc>
    <rc><c>O </c><c>   2</c></rc>
    <rc><c>O </c><c>   2</c></rc>
    <rc><c>O </c><c>   2</c></rc>
    <rc><c>O </c><c>   2</c></rc>
    <rc><c>O </c><c>   2</c></rc>
    <rc><c>O </c><c>   2</c></rc>
    <rc><c>O </c><c>   2</c></rc>
    <rc><c>O </c><c>   2</c></rc>
    <rc><c>O </c><c>   2</c></rc>
    <rc><c>O </c><c>   2</c></rc>
    <rc><c>O </c><c>   2</c></rc>
    <rc><c>O </c><c>   2</c></rc>
    <rc><c>O </c><c>   2</c></rc>
    <rc><c>O </c><c>   2</c></rc>
    <rc><c>O </c><c>   2</c></rc>
    <rc><c>O </c><c>   2</c></rc>
    <rc><c>O </c><c>   2</c></rc>
    <rc><c>O </c><c>   2</c></rc>
    <rc><c>O </c><c>   2</c></rc>
    <rc><c>O </c><c>   2</c></rc>
    <rc><c>O </c><c>   2</c></rc>
    <rc><c>O </c><c>   2</c></rc>
    <rc><c>O </c><c>   2</c></rc>
    <rc><c>O </c><c>   2</c></rc>
    <rc><c>O </c><c>   2</c></rc>
    <rc><c>O </c><c>   2</c></rc>
    <rc><c>O </c><c>   2</c></rc>
    <rc><c>O </c><c>   2</c></rc>
    <rc><c>O </c><c>   2</c></rc>
    <rc><c>O </c><c>   2</c></rc>
    <rc><c>O </c><c>   2</c></rc>
    <rc><c>O </c><c>   2</c></rc>
    <rc><c>O </c><c>   2</c></rc>
    <rc><c>O </c><c>   2</c></rc>
    <rc><c>O </c><c>   2</c></rc>
    <rc><c>O </c><c>   2</c></rc>
    <rc><c>O </c><c>   2</c></rc>
    <rc><c>O </c><c>   2</c></rc>
    <rc><c>O </c><c>   2</c></rc>
   </set>
  </array>
  <array name="atomtypes" >
   <dimension dim="1">type</dimension>
   <field type="int">atomspertype</field>
   <field type="string">element</field>
   <field>mass</field>
   <field>valence</field>
   <field type="string">pseudopotential</field>
   <set>
    <rc><c>  27</c><c>Ce</c><c>    140.11500000</c><c>     12.00000000</c><c>  PAW_PBE Ce 23Dec2003                  </c></rc>
    <rc><c>  72</c><c>O </c><c>     16.00000000</c><c>      6.00000000</c><c>  PAW_PBE O 08Apr2002                   </c></rc>
   </set>
  </array>
 </atominfo>
 <structure name="initialpos" >
  <crystal>
   <varray name="basis" >
    <v>      11.59820000       0.00000000       0.00000000 </v>
    <v>      -5.79910000      10.04433584       0.00000000 </v>
    <v>       0.00000000       0.00000000      21.04820000 </v>
   </varray>
   <i name="volume">   2452.03565189 </i>
   <varray name="rec_basis" >
    <v>       0.08622028       0.04977930       0.00000000 </v>
    <v>       0.00000000       0.09955860       0.00000000 </v>
    <v>       0.00000000       0.00000000       0.04751000 </v>
   </varray>
  </crystal>
  <varray name="positions" >
   <v>       0.00000000       0.00000000       0.45993000 </v>
   <v>       0.22222000       0.11111000       0.30996000 </v>
   <v>       0.11111000       0.22222000       0.15999000 </v>
   <v>       0.33333000       0.00000000       0.45993000 </v>
   <v>       0.55556000       0.11111000       0.30996000 </v>
   <v>       0.44444000       0.22222000       0.15999000 </v>
   <v>       0.66667000       0.00000000       0.45993000 </v>
   <v>       0.88889000       0.11111000       0.30996000 </v>
   <v>       0.77778000       0.22222000       0.15999000 </v>
   <v>       0.00000000       0.33333000       0.45993000 </v>
   <v>       0.22222000       0.44444000       0.30996000 </v>
   <v>       0.11111000       0.55556000       0.15999000 </v>
   <v>       0.33333000       0.33333000       0.45993000 </v>
   <v>       0.55556000       0.44444000       0.30996000 </v>
   <v>       0.44444000       0.55556000       0.15999000 </v>
   <v>       0.66667000       0.33333000       0.45993000 </v>
   <v>       0.88889000       0.44444000       0.30996000 </v>
   <v>       0.77778000       0.55556000       0.15999000 </v>
   <v>       0.00000000       0.66667000       0.45993000 </v>
   <v>       0.22222000       0.77778000       0.30996000 </v>
   <v>       0.11111000       0.88889000       0.15999000 </v>
   <v>       0.33333000       0.66667000       0.45993000 </v>
   <v>       0.55556000       0.77778000       0.30996000 </v>
   <v>       0.44444000       0.88889000       0.15999000 </v>
   <v>       0.66667000       0.66667000       0.45993000 </v>
   <v>       0.88889000       0.77778000       0.30996000 </v>
   <v>       0.77778000       0.88889000       0.15999000 </v>
   <v>       0.00000000       0.00000000       0.12250000 </v>
   <v>       0.00000000       0.00000000       0.57241000 </v>
   <v>       0.11111000       0.22222000       0.27247000 </v>
   <v>       0.22222000       0.11111000       0.42244000 </v>
   <v>       0.11111000       0.22222000       0.04751000 </v>
   <v>       0.11111000       0.22222000       0.49742000 </v>
   <v>       0.00000000       0.00000000       0.34745000 </v>
   <v>       0.22222000       0.11111000       0.19748000 </v>
   <v>       0.33333000       0.00000000       0.12250000 </v>
   <v>       0.33333000       0.00000000       0.57241000 </v>
   <v>       0.44444000       0.22222000       0.27247000 </v>
   <v>       0.55556000       0.11111000       0.42244000 </v>
   <v>       0.44444000       0.22222000       0.04751000 </v>
   <v>       0.44444000       0.22222000       0.49742000 </v>
   <v>       0.33333000       0.00000000       0.34745000 </v>
   <v>       0.55556000       0.11111000       0.19748000 </v>
   <v>       0.66667000       0.00000000       0.12250000 </v>
   <v>       0.66667000       0.00000000       0.57241000 </v>
   <v>       0.77778000       0.22222000       0.27247000 </v>
   <v>       0.88889000       0.11111000       0.42244000 </v>
   <v>       0.77778000       0.22222000       0.04751000 </v>
   <v>       0.77778000       0.22222000       0.49742000 </v>
   <v>       0.66667000       0.00000000       0.34745000 </v>
   <v>       0.88889000       0.11111000       0.19748000 </v>
   <v>       0.00000000       0.33333000       0.12250000 </v>
   <v>       0.00000000       0.33333000       0.57241000 </v>
   <v>       0.11111000       0.55556000       0.27247000 </v>
   <v>       0.22222000       0.44444000       0.42244000 </v>
   <v>       0.11111000       0.55556000       0.04751000 </v>
   <v>       0.11111000       0.55556000       0.49742000 </v>
   <v>       0.00000000       0.33333000       0.34745000 </v>
   <v>       0.22222000       0.44444000       0.19748000 </v>
   <v>       0.33333000       0.33333000       0.12250000 </v>
   <v>       0.33333000       0.33333000       0.57241000 </v>
   <v>       0.44444000       0.55556000       0.27247000 </v>
   <v>       0.55556000       0.44444000       0.42244000 </v>
   <v>       0.44444000       0.55556000       0.04751000 </v>
   <v>       0.44444000       0.55556000       0.49742000 </v>
   <v>       0.33333000       0.33333000       0.34745000 </v>
   <v>       0.55556000       0.44444000       0.19748000 </v>
   <v>       0.66667000       0.33333000       0.12250000 </v>
   <v>       0.66667000       0.33333000       0.57241000 </v>
   <v>       0.77778000       0.55556000       0.27247000 </v>
   <v>       0.88889000       0.44444000       0.42244000 </v>
   <v>       0.77778000       0.55556000       0.04751000 </v>
   <v>       0.77778000       0.55556000       0.49742000 </v>
   <v>       0.66667000       0.33333000       0.34745000 </v>
   <v>       0.88889000       0.44444000       0.19748000 </v>
   <v>       0.00000000       0.66667000       0.12250000 </v>
   <v>       0.00000000       0.66667000       0.57241000 </v>
   <v>       0.11111000       0.88889000       0.27247000 </v>
   <v>       0.22222000       0.77778000       0.42244000 </v>
   <v>       0.11111000       0.88889000       0.04751000 </v>
   <v>       0.11111000       0.88889000       0.49742000 </v>
   <v>       0.00000000       0.66667000       0.34745000 </v>
   <v>       0.22222000       0.77778000       0.19748000 </v>
   <v>       0.33333000       0.66667000       0.12250000 </v>
   <v>       0.33333000       0.66667000       0.57241000 </v>
   <v>       0.44444000       0.88889000       0.27247000 </v>
   <v>       0.55556000       0.77778000       0.42244000 </v>
   <v>       0.44444000       0.88889000       0.04751000 </v>
   <v>       0.44444000       0.88889000       0.49742000 </v>
   <v>       0.33333000       0.66667000       0.34745000 </v>
   <v>       0.55556000       0.77778000       0.19748000 </v>
   <v>       0.66667000       0.66667000       0.12250000 </v>
   <v>       0.66667000       0.66667000       0.57241000 </v>
   <v>       0.77778000       0.88889000       0.27247000 </v>
   <v>       0.88889000       0.77778000       0.42244000 </v>
   <v>       0.77778000       0.88889000       0.04751000 </v>
   <v>       0.77778000       0.88889000       0.49742000 </v>
   <v>       0.66667000       0.66667000       0.34745000 </v>
   <v>       0.88889000       0.77778000       0.19748000 </v>
  </varray>
  <varray name="selective"  type="logical" >
   <v type="logical" >  T  T  T </v>
   <v type="logical" >  T  T  T </v>
   <v type="logical" >  F  F  F </v>
   <v type="logical" >  T  T  T </v>
   <v type="logical" >  T  T  T </v>
   <v type="logical" >  F  F  F </v>
   <v type="logical" >  T  T  T </v>
   <v type="logical" >  T  T  T </v>
   <v type="logical" >  F  F  F </v>
   <v type="logical" >  T  T  T </v>
   <v type="logical" >  T  T  T </v>
   <v type="logical" >  F  F  F </v>
   <v type="logical" >  T  T  T </v>
   <v type="logical" >  T  T  T </v>
   <v type="logical" >  F  F  F </v>
   <v type="logical" >  T  T  T </v>
   <v type="logical" >  T  T  T </v>
   <v type="logical" >  F  F  F </v>
   <v type="logical" >  T  T  T </v>
   <v type="logical" >  T  T  T </v>
   <v type="logical" >  F  F  F </v>
   <v type="logical" >  T  T  T </v>
   <v type="logical" >  T  T  T </v>
   <v type="logical" >  F  F  F </v>
   <v type="logical" >  T  T  T </v>
   <v type="logical" >  T  T  T </v>
   <v type="logical" >  F  F  F </v>
   <v type="logical" >  F  F  F </v>
   <v type="logical" >  T  T  T </v>
   <v type="logical" >  T  T  T </v>
   <v type="logical" >  T  T  T </v>
   <v type="logical" >  F  F  F </v>
   <v type="logical" >  T  T  T </v>
   <v type="logical" >  T  T  T </v>
   <v type="logical" >  F  F  F </v>
   <v type="logical" >  F  F  F </v>
   <v type="logical" >  T  T  T </v>
   <v type="logical" >  T  T  T </v>
   <v type="logical" >  T  T  T </v>
   <v type="logical" >  F  F  F </v>
   <v type="logical" >  T  T  T </v>
   <v type="logical" >  T  T  T </v>
   <v type="logical" >  F  F  F </v>
   <v type="logical" >  F  F  F </v>
   <v type="logical" >  T  T  T </v>
   <v type="logical" >  T  T  T </v>
   <v type="logical" >  T  T  T </v>
   <v type="logical" >  F  F  F </v>
   <v type="logical" >  T  T  T </v>
   <v type="logical" >  T  T  T </v>
   <v type="logical" >  F  F  F </v>
   <v type="logical" >  F  F  F </v>
   <v type="logical" >  T  T  T </v>
   <v type="logical" >  T  T  T </v>
   <v type="logical" >  T  T  T </v>
   <v type="logical" >  F  F  F </v>
   <v type="logical" >  T  T  T </v>
   <v type="logical" >  T  T  T </v>
   <v type="logical" >  F  F  F </v>
   <v type="logical" >  F  F  F </v>
   <v type="logical" >  T  T  T </v>
   <v type="logical" >  T  T  T </v>
   <v type="logical" >  T  T  T </v>
   <v type="logical" >  F  F  F </v>
   <v type="logical" >  T  T  T </v>
   <v type="logical" >  T  T  T </v>
   <v type="logical" >  F  F  F </v>
   <v type="logical" >  F  F  F </v>
   <v type="logical" >  T  T  T </v>
   <v type="logical" >  T  T  T </v>
   <v type="logical" >  T  T  T </v>
   <v type="logical" >  F  F  F </v>
   <v type="logical" >  T  T  T </v>
   <v type="logical" >  T  T  T </v>
   <v type="logical" >  F  F  F </v>
   <v type="logical" >  F  F  F </v>
   <v type="logical" >  T  T  T </v>
   <v type="logical" >  T  T  T </v>
   <v type="logical" >  T  T  T </v>
   <v type="logical" >  F  F  F </v>
   <v type="logical" >  T  T  T </v>
   <v type="logical" >  T  T  T </v>
   <v type="logical" >  F  F  F </v>
   <v type="logical" >  F  F  F </v>
   <v type="logical" >  T  T  T </v>
   <v type="logical" >  T  T  T </v>
   <v type="logical" >  T  T  T </v>
   <v type="logical" >  F  F  F </v>
   <v type="logical" >  T  T  T </v>
   <v type="logical" >  T  T  T </v>
   <v type="logical" >  F  F  F </v>
   <v type="logical" >  F  F  F </v>
   <v type="logical" >  T  T  T </v>
   <v type="logical" >  T  T  T </v>
   <v type="logical" >  T  T  T </v>
   <v type="logical" >  F  F  F </v>
   <v type="logical" >  T  T  T </v>
   <v type="logical" >  T  T  T </v>
   <v type="logical" >  F  F  F </v>
  </varray>
  <nose>
   <v>      -3.00000000       0.00000000       0.00010000       0.00010000 </v>
  </nose>
 </structure>
 <calculation>
  <scstep>
   <time name="dav">   19.36   19.41</time>
   <time name="total">   20.72   20.78</time>
   <energy>
    <i name="alphaZ">   1974.14298321 </i>
    <i name="ewald"> 122685.08568802 </i>
    <i name="hartreedc">-178097.04835841 </i>
    <i name="XCdc">   2124.76690006 </i>
    <i name="pawpsdc">  47919.11190030 </i>
    <i name="pawaedc"> -47389.25643230 </i>
    <i name="eentropy">     -0.03584442 </i>
    <i name="bandstr">   3026.20063587 </i>
    <i name="atom">  59832.74074702 </i>
    <i name="e_fr_energy">  12075.70821936 </i>
    <i name="e_wo_entrp">  12075.74406377 </i>
    <i name="e_0_energy">  12075.72614157 </i>
   </energy>
  </scstep>
  <scstep>
   <time name="dav">   21.36   21.38</time>
   <time name="total">   21.37   21.38</time>
   <energy>
    <i name="e_fr_energy">   3361.64943666 </i>
    <i name="e_wo_entrp">   3361.83824375 </i>
    <i name="e_0_energy">   3361.74384021 </i>
   </energy>
  </scstep>
  <scstep>
   <time name="dav">   24.66   24.68</time>
   <time name="total">   24.67   24.68</time>
   <energy>
    <i name="e_fr_energy">   -301.90469548 </i>
    <i name="e_wo_entrp">   -301.89243858 </i>
    <i name="e_0_energy">   -301.89856703 </i>
   </energy>
  </scstep>
  <scstep>
   <time name="dav">   25.86   25.88</time>
   <time name="total">   25.86   25.88</time>
   <energy>
    <i name="e_fr_energy">   -813.94327211 </i>
    <i name="e_wo_entrp">   -813.91288428 </i>
    <i name="e_0_energy">   -813.92807819 </i>
   </energy>
  </scstep>
  <scstep>
   <time name="dav">   29.83   29.85</time>
   <time name="total">   30.98   31.00</time>
   <energy>
    <i name="e_fr_energy">   -846.38579811 </i>
    <i name="e_wo_entrp">   -846.38577694 </i>
    <i name="e_0_energy">   -846.38578752 </i>
   </energy>
  </scstep>
  <scstep>
   <time name="dav">   25.20   25.21</time>
   <time name="total">   27.57   27.58</time>
   <energy>
    <i name="e_fr_energy">   -660.62505229 </i>
    <i name="e_wo_entrp">   -660.62486555 </i>
    <i name="e_0_energy">   -660.62495892 </i>
   </energy>
  </scstep>
  <scstep>
   <time name="dav">   29.64   29.65</time>
   <time name="total">   31.98   31.99</time>
   <energy>
    <i name="e_fr_energy">   -704.52238144 </i>
    <i name="e_wo_entrp">   -704.52238144 </i>
    <i name="e_0_energy">   -704.52238144 </i>
   </energy>
  </scstep>
  <scstep>
   <time name="dav">   27.60   27.62</time>
   <time name="total">   29.95   29.96</time>
   <energy>
    <i name="e_fr_energy">   -687.39947411 </i>
    <i name="e_wo_entrp">   -687.39947411 </i>
    <i name="e_0_energy">   -687.39947411 </i>
   </energy>
  </scstep>
  <scstep>
   <time name="dav">   30.37   30.39</time>
   <time name="total">   32.71   32.73</time>
   <energy>
    <i name="e_fr_energy">   -686.06229057 </i>
    <i name="e_wo_entrp">   -686.05207998 </i>
    <i name="e_0_energy">   -686.05718528 </i>
   </energy>
  </scstep>
  <scstep>
   <time name="dav">   30.73   30.75</time>
   <time name="total">   33.07   33.09</time>
   <energy>
    <i name="e_fr_energy">   -685.75654898 </i>
    <i name="e_wo_entrp">   -685.75654898 </i>
    <i name="e_0_energy">   -685.75654898 </i>
   </energy>
  </scstep>
  <scstep>
   <time name="dav">   31.32   31.33</time>
   <time name="total">   33.66   33.68</time>
   <energy>
    <i name="e_fr_energy">   -685.50897477 </i>
    <i name="e_wo_entrp">   -685.50897477 </i>
    <i name="e_0_energy">   -685.50897477 </i>
   </energy>
  </scstep>
  <scstep>
   <time name="dav">   29.76   29.77</time>
   <time name="total">   32.10   32.12</time>
   <energy>
    <i name="e_fr_energy">   -689.10066161 </i>
    <i name="e_wo_entrp">   -689.10066161 </i>
    <i name="e_0_energy">   -689.10066161 </i>
   </energy>
  </scstep>
  <scstep>
   <time name="dav">   29.11   29.12</time>
   <time name="total">   31.44   31.46</time>
   <energy>
    <i name="e_fr_energy">   -692.23688495 </i>
    <i name="e_wo_entrp">   -692.23688495 </i>
    <i name="e_0_energy">   -692.23688495 </i>
   </energy>
  </scstep>
  <scstep>
   <time name="dav">   27.81   27.82</time>
   <time name="total">   30.15   30.17</time>
   <energy>
    <i name="e_fr_energy">   -691.96058863 </i>
    <i name="e_wo_entrp">   -691.96058863 </i>
    <i name="e_0_energy">   -691.96058863 </i>
   </energy>
  </scstep>
  <scstep>
   <time name="dav">   28.52   28.54</time>
   <time name="total">   30.86   30.88</time>
   <energy>
    <i name="e_fr_energy">   -692.71696987 </i>
    <i name="e_wo_entrp">   -692.71696987 </i>
    <i name="e_0_energy">   -692.71696987 </i>
   </energy>
  </scstep>
  <scstep>
   <time name="dav">   27.61   27.63</time>
   <time name="total">   29.94   29.95</time>
   <energy>
    <i name="e_fr_energy">   -693.52467538 </i>
    <i name="e_wo_entrp">   -693.52467538 </i>
    <i name="e_0_energy">   -693.52467538 </i>
   </energy>
  </scstep>
  <scstep>
   <time name="dav">   27.31   27.32</time>
   <time name="total">   29.65   29.66</time>
   <energy>
    <i name="e_fr_energy">   -694.02578615 </i>
    <i name="e_wo_entrp">   -694.02578615 </i>
    <i name="e_0_energy">   -694.02578615 </i>
   </energy>
  </scstep>
  <scstep>
   <time name="dav">   28.05   28.06</time>
   <time name="total">   30.37   30.39</time>
   <energy>
    <i name="e_fr_energy">   -694.15343945 </i>
    <i name="e_wo_entrp">   -694.15343945 </i>
    <i name="e_0_energy">   -694.15343945 </i>
   </energy>
  </scstep>
  <scstep>
   <time name="dav">   31.20   31.21</time>
   <time name="total">   33.53   33.55</time>
   <energy>
    <i name="e_fr_energy">   -694.18362431 </i>
    <i name="e_wo_entrp">   -694.18362431 </i>
    <i name="e_0_energy">   -694.18362431 </i>
   </energy>
  </scstep>
  <scstep>
   <time name="dav">   29.79   29.81</time>
   <time name="total">   32.12   32.14</time>
   <energy>
    <i name="e_fr_energy">   -694.19521177 </i>
    <i name="e_wo_entrp">   -694.19521177 </i>
    <i name="e_0_energy">   -694.19521177 </i>
   </energy>
  </scstep>
  <scstep>
   <time name="dav">   30.49   30.51</time>
   <time name="total">   32.83   32.85</time>
   <energy>
    <i name="e_fr_energy">   -694.19792431 </i>
    <i name="e_wo_entrp">   -694.19792431 </i>
    <i name="e_0_energy">   -694.19792431 </i>
   </energy>
  </scstep>
  <scstep>
   <time name="dav">   30.56   30.58</time>
   <time name="total">   32.90   32.91</time>
   <energy>
    <i name="e_fr_energy">   -694.19984657 </i>
    <i name="e_wo_entrp">   -694.19984657 </i>
    <i name="e_0_energy">   -694.19984657 </i>
   </energy>
  </scstep>
  <scstep>
   <time name="dav">   32.41   32.42</time>
   <time name="total">   34.75   34.77</time>
   <energy>
    <i name="e_fr_energy">   -694.20015176 </i>
    <i name="e_wo_entrp">   -694.20015176 </i>
    <i name="e_0_energy">   -694.20015176 </i>
   </energy>
  </scstep>
  <scstep>
   <time name="dav">   29.24   29.26</time>
   <time name="total">   31.58   31.60</time>
   <energy>
    <i name="e_fr_energy">   -694.20072511 </i>
    <i name="e_wo_entrp">   -694.20072511 </i>
    <i name="e_0_energy">   -694.20072511 </i>
   </energy>
  </scstep>
  <scstep>
   <time name="dav">   25.89   25.90</time>
   <time name="total">   28.22   28.23</time>
   <energy>
    <i name="e_fr_energy">   -694.20190676 </i>
    <i name="e_wo_entrp">   -694.20190676 </i>
    <i name="e_0_energy">   -694.20190676 </i>
   </energy>
  </scstep>
  <scstep>
   <time name="dav">   25.11   25.12</time>
   <time name="total">   27.47   27.48</time>
   <energy>
    <i name="e_fr_energy">   -694.20265291 </i>
    <i name="e_wo_entrp">   -694.20265291 </i>
    <i name="e_0_energy">   -694.20265291 </i>
   </energy>
  </scstep>
  <scstep>
   <time name="dav">   25.33   25.34</time>
   <time name="total">   27.68   27.70</time>
   <energy>
    <i name="e_fr_energy">   -694.20311445 </i>
    <i name="e_wo_entrp">   -694.20311445 </i>
    <i name="e_0_energy">   -694.20311445 </i>
   </energy>
  </scstep>
  <scstep>
   <time name="dav">   20.38   20.39</time>
   <time name="total">   22.73   22.74</time>
   <energy>
    <i name="e_fr_energy">   -694.20350920 </i>
    <i name="e_wo_entrp">   -694.20350920 </i>
    <i name="e_0_energy">   -694.20350920 </i>
   </energy>
  </scstep>
  <scstep>
   <time name="dav">   21.05   21.06</time>
   <time name="total">   23.40   23.41</time>
   <energy>
    <i name="e_fr_energy">   -694.20371773 </i>
    <i name="e_wo_entrp">   -694.20371773 </i>
    <i name="e_0_energy">   -694.20371773 </i>
   </energy>
  </scstep>
  <scstep>
   <time name="dav">   19.62   19.63</time>
   <time name="total">   21.97   21.98</time>
   <energy>
    <i name="e_fr_energy">   -694.20396052 </i>
    <i name="e_wo_entrp">   -694.20396052 </i>
    <i name="e_0_energy">   -694.20396052 </i>
   </energy>
  </scstep>
  <scstep>
   <time name="dav">   18.97   18.98</time>
   <time name="total">   21.30   21.31</time>
   <energy>
    <i name="e_fr_energy">   -694.20414249 </i>
    <i name="e_wo_entrp">   -694.20414249 </i>
    <i name="e_0_energy">   -694.20414249 </i>
   </energy>
  </scstep>
  <scstep>
   <time name="dav">   17.76   17.77</time>
   <time name="total">   20.10   20.11</time>
   <energy>
    <i name="e_fr_energy">   -694.20420814 </i>
    <i name="e_wo_entrp">   -694.20420814 </i>
    <i name="e_0_energy">   -694.20420814 </i>
   </energy>
  </scstep>
  <scstep>
   <time name="dav">   16.40   16.41</time>
   <time name="total">   18.74   18.75</time>
   <energy>
    <i name="e_fr_energy">   -694.20425737 </i>
    <i name="e_wo_entrp">   -694.20425737 </i>
    <i name="e_0_energy">   -694.20425737 </i>
   </energy>
  </scstep>
  <scstep>
   <time name="dav">   16.63   16.63</time>
   <time name="total">   18.95   18.96</time>
   <energy>
    <i name="e_fr_energy">   -694.20430444 </i>
    <i name="e_wo_entrp">   -694.20430444 </i>
    <i name="e_0_energy">   -694.20430444 </i>
   </energy>
  </scstep>
  <scstep>
   <time name="dav">   16.29   16.30</time>
   <time name="total">   18.62   18.63</time>
   <energy>
    <i name="e_fr_energy">   -694.20432398 </i>
    <i name="e_wo_entrp">   -694.20432398 </i>
    <i name="e_0_energy">   -694.20432398 </i>
   </energy>
  </scstep>
  <scstep>
   <time name="dav">   14.35   14.36</time>
   <time name="total">   16.67   16.68</time>
   <energy>
    <i name="e_fr_energy">   -694.20432941 </i>
    <i name="e_wo_entrp">   -694.20432941 </i>
    <i name="e_0_energy">   -694.20432941 </i>
   </energy>
  </scstep>
  <scstep>
   <time name="dav">   14.50   14.51</time>
   <time name="total">   16.83   16.84</time>
   <energy>
    <i name="e_fr_energy">   -694.20433127 </i>
    <i name="e_wo_entrp">   -694.20433127 </i>
    <i name="e_0_energy">   -694.20433127 </i>
   </energy>
  </scstep>
  <scstep>
   <time name="dav">   14.25   14.26</time>
   <time name="total">   16.60   16.61</time>
   <energy>
    <i name="e_fr_energy">   -694.20433243 </i>
    <i name="e_wo_entrp">   -694.20433243 </i>
    <i name="e_0_energy">   -694.20433243 </i>
   </energy>
  </scstep>
  <scstep>
   <time name="dav">   14.26   14.27</time>
   <time name="total">   15.52   15.53</time>
   <energy>
    <i name="alphaZ">   1974.14298321 </i>
    <i name="ewald"> 122685.08568802 </i>
    <i name="hartreedc">-179449.54687133 </i>
    <i name="XCdc">   2189.91286678 </i>
    <i name="pawpsdc">  55027.88280839 </i>
    <i name="pawaedc"> -54425.79069894 </i>
    <i name="eentropy">     -0.00000000 </i>
    <i name="bandstr">  -8528.63185625 </i>
    <i name="atom">  59832.74074702 </i>
    <i name="e_fr_energy">   -694.20433310 </i>
    <i name="e_wo_entrp">   -694.20433310 </i>
    <i name="e_0_energy">   -694.20433310 </i>
   </energy>
  </scstep>
  <structure>
   <crystal>
    <varray name="basis" >
     <v>      11.59820000       0.00000000       0.00000000 </v>
     <v>      -5.79910000      10.04433584       0.00000000 </v>
     <v>       0.00000000       0.00000000      21.04820000 </v>
    </varray>
    <i name="volume">   2452.03565189 </i>
    <varray name="rec_basis" >
     <v>       0.08622028       0.04977930       0.00000000 </v>
     <v>       0.00000000       0.09955860       0.00000000 </v>
     <v>       0.00000000       0.00000000       0.04751000 </v>
    </varray>
   </crystal>
   <varray name="positions" >
    <v>       0.00000000       0.00000000       0.45993000 </v>
    <v>       0.22222000       0.11111000       0.30996000 </v>
    <v>       0.11111000       0.22222000       0.15999000 </v>
    <v>       0.33333000       0.00000000       0.45993000 </v>
    <v>       0.55556000       0.11111000       0.30996000 </v>
    <v>       0.44444000       0.22222000       0.15999000 </v>
    <v>       0.66667000       0.00000000       0.45993000 </v>
    <v>       0.88889000       0.11111000       0.30996000 </v>
    <v>       0.77778000       0.22222000       0.15999000 </v>
    <v>       0.00000000       0.33333000       0.45993000 </v>
    <v>       0.22222000       0.44444000       0.30996000 </v>
    <v>       0.11111000       0.55556000       0.15999000 </v>
    <v>       0.33333000       0.33333000       0.45993000 </v>
    <v>       0.55556000       0.44444000       0.30996000 </v>
    <v>       0.44444000       0.55556000       0.15999000 </v>
    <v>       0.66667000       0.33333000       0.45993000 </v>
    <v>       0.88889000       0.44444000       0.30996000 </v>
    <v>       0.77778000       0.55556000       0.15999000 </v>
    <v>       0.00000000       0.66667000       0.45993000 </v>
    <v>       0.22222000       0.77778000       0.30996000 </v>
    <v>       0.11111000       0.88889000       0.15999000 </v>
    <v>       0.33333000       0.66667000       0.45993000 </v>
    <v>       0.55556000       0.77778000       0.30996000 </v>
    <v>       0.44444000       0.88889000       0.15999000 </v>
    <v>       0.66667000       0.66667000       0.45993000 </v>
    <v>       0.88889000       0.77778000       0.30996000 </v>
    <v>       0.77778000       0.88889000       0.15999000 </v>
    <v>       0.00000000       0.00000000       0.12250000 </v>
    <v>       0.00000000       0.00000000       0.57241000 </v>
    <v>       0.11111000       0.22222000       0.27247000 </v>
    <v>       0.22222000       0.11111000       0.42244000 </v>
    <v>       0.11111000       0.22222000       0.04751000 </v>
    <v>       0.11111000       0.22222000       0.49742000 </v>
    <v>       0.00000000       0.00000000       0.34745000 </v>
    <v>       0.22222000       0.11111000       0.19748000 </v>
    <v>       0.33333000       0.00000000       0.12250000 </v>
    <v>       0.33333000       0.00000000       0.57241000 </v>
    <v>       0.44444000       0.22222000       0.27247000 </v>
    <v>       0.55556000       0.11111000       0.42244000 </v>
    <v>       0.44444000       0.22222000       0.04751000 </v>
    <v>       0.44444000       0.22222000       0.49742000 </v>
    <v>       0.33333000       0.00000000       0.34745000 </v>
    <v>       0.55556000       0.11111000       0.19748000 </v>
    <v>       0.66667000       0.00000000       0.12250000 </v>
    <v>       0.66667000       0.00000000       0.57241000 </v>
    <v>       0.77778000       0.22222000       0.27247000 </v>
    <v>       0.88889000       0.11111000       0.42244000 </v>
    <v>       0.77778000       0.22222000       0.04751000 </v>
    <v>       0.77778000       0.22222000       0.49742000 </v>
    <v>       0.66667000       0.00000000       0.34745000 </v>
    <v>       0.88889000       0.11111000       0.19748000 </v>
    <v>       0.00000000       0.33333000       0.12250000 </v>
    <v>       0.00000000       0.33333000       0.57241000 </v>
    <v>       0.11111000       0.55556000       0.27247000 </v>
    <v>       0.22222000       0.44444000       0.42244000 </v>
    <v>       0.11111000       0.55556000       0.04751000 </v>
    <v>       0.11111000       0.55556000       0.49742000 </v>
    <v>       0.00000000       0.33333000       0.34745000 </v>
    <v>       0.22222000       0.44444000       0.19748000 </v>
    <v>       0.33333000       0.33333000       0.12250000 </v>
    <v>       0.33333000       0.33333000       0.57241000 </v>
    <v>       0.44444000       0.55556000       0.27247000 </v>
    <v>       0.55556000       0.44444000       0.42244000 </v>
    <v>       0.44444000       0.55556000       0.04751000 </v>
    <v>       0.44444000       0.55556000       0.49742000 </v>
    <v>       0.33333000       0.33333000       0.34745000 </v>
    <v>       0.55556000       0.44444000       0.19748000 </v>
    <v>       0.66667000       0.33333000       0.12250000 </v>
    <v>       0.66667000       0.33333000       0.57241000 </v>
    <v>       0.77778000       0.55556000       0.27247000 </v>
    <v>       0.88889000       0.44444000       0.42244000 </v>
    <v>       0.77778000       0.55556000       0.04751000 </v>
    <v>       0.77778000       0.55556000       0.49742000 </v>
    <v>       0.66667000       0.33333000       0.34745000 </v>
    <v>       0.88889000       0.44444000       0.19748000 </v>
    <v>       0.00000000       0.66667000       0.12250000 </v>
    <v>       0.00000000       0.66667000       0.57241000 </v>
    <v>       0.11111000       0.88889000       0.27247000 </v>
    <v>       0.22222000       0.77778000       0.42244000 </v>
    <v>       0.11111000       0.88889000       0.04751000 </v>
    <v>       0.11111000       0.88889000       0.49742000 </v>
    <v>       0.00000000       0.66667000       0.34745000 </v>
    <v>       0.22222000       0.77778000       0.19748000 </v>
    <v>       0.33333000       0.66667000       0.12250000 </v>
    <v>       0.33333000       0.66667000       0.57241000 </v>
    <v>       0.44444000       0.88889000       0.27247000 </v>
    <v>       0.55556000       0.77778000       0.42244000 </v>
    <v>       0.44444000       0.88889000       0.04751000 </v>
    <v>       0.44444000       0.88889000       0.49742000 </v>
    <v>       0.33333000       0.66667000       0.34745000 </v>
    <v>       0.55556000       0.77778000       0.19748000 </v>
    <v>       0.66667000       0.66667000       0.12250000 </v>
    <v>       0.66667000       0.66667000       0.57241000 </v>
    <v>       0.77778000       0.88889000       0.27247000 </v>
    <v>       0.88889000       0.77778000       0.42244000 </v>
    <v>       0.77778000       0.88889000       0.04751000 </v>
    <v>       0.77778000       0.88889000       0.49742000 </v>
    <v>       0.66667000       0.66667000       0.34745000 </v>
    <v>       0.88889000       0.77778000       0.19748000 </v>
   </varray>
  </structure>
  <varray name="forces" >
   <v>       0.00006225      -0.00003594       0.14128551 </v>
   <v>       0.00026428       0.00002165       0.00003715 </v>
   <v>      -0.00006308       0.00020470      -0.14139924 </v>
   <v>       0.00034833       0.00006980       0.14116871 </v>
   <v>      -0.00073941      -0.00030671      -0.00009276 </v>
   <v>       0.00061454       0.00036342      -0.14127371 </v>
   <v>      -0.00040181      -0.00024692       0.14134631 </v>
   <v>       0.00009930      -0.00005733      -0.00009809 </v>
   <v>      -0.00022068       0.00012741      -0.14158952 </v>
   <v>       0.00001293       0.00047144       0.14134631 </v>
   <v>       0.00006541       0.00087287       0.00003105 </v>
   <v>       0.00016434      -0.00064856      -0.14109070 </v>
   <v>       0.00029882       0.00058110       0.14122981 </v>
   <v>      -0.00094713       0.00054683      -0.00009376 </v>
   <v>       0.00083879      -0.00048428      -0.14096066 </v>
   <v>      -0.00045450       0.00026240       0.14140590 </v>
   <v>      -0.00010408       0.00079370      -0.00009276 </v>
   <v>      -0.00000747      -0.00071391      -0.14127371 </v>
   <v>       0.00011372      -0.00033656       0.14116871 </v>
   <v>       0.00027666      -0.00015973       0.00017013 </v>
   <v>      -0.00005244       0.00003028      -0.14121150 </v>
   <v>       0.00040915      -0.00023622       0.14104649 </v>
   <v>      -0.00072322      -0.00049308       0.00003105 </v>
   <v>       0.00064383       0.00018196      -0.14109070 </v>
   <v>      -0.00035383      -0.00054933       0.14122981 </v>
   <v>       0.00011339      -0.00023970       0.00003715 </v>
   <v>      -0.00020882      -0.00004772      -0.14139924 </v>
   <v>       0.00005087      -0.00002937      -0.21520710 </v>
   <v>       0.00001665      -0.00000961       0.06312046 </v>
   <v>      -0.00004756       0.00008787       0.03485519 </v>
   <v>      -0.00002005       0.00008678      -0.05431147 </v>
   <v>      -0.00002554       0.00002819      -0.06305483 </v>
   <v>       0.00001319       0.00006752       0.21520481 </v>
   <v>      -0.00004079       0.00002355      -0.03478587 </v>
   <v>       0.00010941       0.00003542       0.05430799 </v>
   <v>       0.00022352       0.00005957      -0.21506158 </v>
   <v>       0.00002100       0.00001416       0.06304644 </v>
   <v>       0.00055857       0.00012902       0.03486931 </v>
   <v>      -0.00029783       0.00006283      -0.05440231 </v>
   <v>       0.00002959       0.00005620      -0.06294552 </v>
   <v>       0.00031317       0.00005455       0.21505698 </v>
   <v>       0.00035695       0.00022646      -0.03469162 </v>
   <v>      -0.00051087      -0.00000551       0.05438793 </v>
   <v>      -0.00028202      -0.00017058      -0.21515974 </v>
   <v>      -0.00001063      -0.00001388       0.06307387 </v>
   <v>      -0.00009984       0.00005764       0.03497835 </v>
   <v>      -0.00008593       0.00004961      -0.05436219 </v>
   <v>      -0.00003451       0.00001993      -0.06299059 </v>
   <v>      -0.00004490       0.00002592       0.21523033 </v>
   <v>      -0.00018780      -0.00003871      -0.03495501 </v>
   <v>       0.00002130      -0.00001230       0.05442778 </v>
   <v>       0.00000672       0.00032952      -0.21515974 </v>
   <v>       0.00000671       0.00001614       0.06307387 </v>
   <v>       0.00021802      -0.00051739       0.03474688 </v>
   <v>      -0.00014110       0.00026363      -0.05435249 </v>
   <v>      -0.00003026      -0.00004398      -0.06301702 </v>
   <v>       0.00016632      -0.00025616       0.21503819 </v>
   <v>      -0.00006038       0.00018200      -0.03495501 </v>
   <v>      -0.00016701       0.00048895       0.05427222 </v>
   <v>       0.00017844       0.00041808      -0.21500605 </v>
   <v>       0.00001384       0.00003589       0.06300031 </v>
   <v>       0.00082502      -0.00047633       0.03476166 </v>
   <v>      -0.00041680       0.00024064      -0.05444649 </v>
   <v>       0.00003101      -0.00001790      -0.06291651 </v>
   <v>       0.00046682      -0.00026952       0.21487770 </v>
   <v>       0.00033726       0.00038512      -0.03486062 </v>
   <v>      -0.00078063       0.00045070       0.05435213 </v>
   <v>      -0.00032418       0.00018716      -0.21511070 </v>
   <v>      -0.00001799       0.00001039       0.06303335 </v>
   <v>       0.00016755      -0.00054825       0.03486931 </v>
   <v>      -0.00020333       0.00022651      -0.05440231 </v>
   <v>      -0.00003388      -0.00005372      -0.06294552 </v>
   <v>       0.00010934      -0.00029849       0.21505698 </v>
   <v>      -0.00020675       0.00011937      -0.03512435 </v>
   <v>      -0.00025067       0.00044519       0.05438793 </v>
   <v>       0.00006017      -0.00022336      -0.21506158 </v>
   <v>      -0.00000177      -0.00002527       0.06304644 </v>
   <v>      -0.00004776       0.00002758       0.03473129 </v>
   <v>      -0.00001634       0.00000943      -0.05425881 </v>
   <v>      -0.00002845       0.00001642      -0.06311190 </v>
   <v>       0.00000420      -0.00000242       0.21518413 </v>
   <v>      -0.00001764      -0.00042236      -0.03469162 </v>
   <v>       0.00010049      -0.00005802       0.05418887 </v>
   <v>       0.00023111      -0.00013343      -0.21489097 </v>
   <v>       0.00000097      -0.00000056       0.06296366 </v>
   <v>       0.00055708       0.00006988       0.03474688 </v>
   <v>      -0.00029886      -0.00000962      -0.05435249 </v>
   <v>       0.00002296       0.00004820      -0.06301702 </v>
   <v>       0.00030501      -0.00001596       0.21503819 </v>
   <v>       0.00037842      -0.00021848      -0.03459565 </v>
   <v>      -0.00050695      -0.00009984       0.05427222 </v>
   <v>      -0.00027285      -0.00036358      -0.21500605 </v>
   <v>      -0.00002416      -0.00002993       0.06300031 </v>
   <v>      -0.00009988      -0.00000275       0.03485519 </v>
   <v>      -0.00008518      -0.00002603      -0.05431147 </v>
   <v>      -0.00003718       0.00000803      -0.06305483 </v>
   <v>      -0.00005188      -0.00004519       0.21520481 </v>
   <v>      -0.00016489      -0.00048464      -0.03486062 </v>
   <v>       0.00002404      -0.00011246       0.05430799 </v>
  </varray>
  <varray name="stress" >
   <v>       0.23529275       0.00041932       0.00032564 </v>
   <v>       0.00041932       0.23577694      -0.00018801 </v>
   <v>       0.00032513      -0.00018771      15.83530491 </v>
  </varray>
  <energy>
   <i name="e_fr_energy">   -694.20433310 </i>
   <i name="e_wo_entrp">   -694.20433310 </i>
   <i name="e_0_energy">   -694.20433310 </i>
  </energy>
  <time name="totalsc"> 1073.09 1073.69</time>
 </calculation>
 <calculation>
  <scstep>
   <time name="dav">   19.21   19.22</time>
   <time name="total">   21.56   21.57</time>
   <energy>
    <i name="alphaZ">   1974.14298321 </i>
    <i name="ewald"> 122438.58423160 </i>
    <i name="hartreedc">-179205.26215117 </i>
    <i name="XCdc">   2189.73226669 </i>
    <i name="pawpsdc">  55027.88966002 </i>
    <i name="pawaedc"> -54425.79725316 </i>
    <i name="eentropy">     -0.00000000 </i>
    <i name="bandstr">  -8526.23837159 </i>
    <i name="atom">  59832.74074702 </i>
    <i name="e_fr_energy">   -694.20788738 </i>
    <i name="e_wo_entrp">   -694.20788738 </i>
    <i name="e_0_energy">   -694.20788738 </i>
   </energy>
  </scstep>
  <scstep>
   <time name="dav">   28.66   28.68</time>
   <time name="total">   30.99   31.00</time>
   <energy>
    <i name="e_fr_energy">   -694.22718808 </i>
    <i name="e_wo_entrp">   -694.22718808 </i>
    <i name="e_0_energy">   -694.22718808 </i>
   </energy>
  </scstep>
  <scstep>
   <time name="dav">   31.65   31.66</time>
   <time name="total">   33.98   34.00</time>
   <energy>
    <i name="e_fr_energy">   -694.23102608 </i>
    <i name="e_wo_entrp">   -694.23102608 </i>
    <i name="e_0_energy">   -694.23102608 </i>
   </energy>
  </scstep>
  <scstep>
   <time name="dav">   29.46   29.48</time>
   <time name="total">   31.81   31.83</time>
   <energy>
    <i name="e_fr_energy">   -694.23081498 </i>
    <i name="e_wo_entrp">   -694.23081498 </i>
    <i name="e_0_energy">   -694.23081498 </i>
   </energy>
  </scstep>
  <scstep>
   <time name="dav">   30.88   30.90</time>
   <time name="total">   33.22   33.24</time>
   <energy>
    <i name="e_fr_energy">   -694.23052978 </i>
    <i name="e_wo_entrp">   -694.23052978 </i>
    <i name="e_0_energy">   -694.23052978 </i>
   </energy>
  </scstep>
  <scstep>
   <time name="dav">   29.29   29.31</time>
   <time name="total">   31.64   31.66</time>
   <energy>
    <i name="e_fr_energy">   -694.23064476 </i>
    <i name="e_wo_entrp">   -694.23064476 </i>
    <i name="e_0_energy">   -694.23064476 </i>
   </energy>
  </scstep>
  <scstep>
   <time name="dav">   30.10   30.12</time>
   <time name="total">   32.46   32.47</time>
   <energy>
    <i name="e_fr_energy">   -694.23051738 </i>
    <i name="e_wo_entrp">   -694.23051738 </i>
    <i name="e_0_energy">   -694.23051738 </i>
   </energy>
  </scstep>
  <scstep>
   <time name="dav">   28.52   28.53</time>
   <time name="total">   30.85   30.86</time>
   <energy>
    <i name="e_fr_energy">   -694.23047569 </i>
    <i name="e_wo_entrp">   -694.23047569 </i>
    <i name="e_0_energy">   -694.23047569 </i>
   </energy>
  </scstep>
  <scstep>
   <time name="dav">   29.45   29.46</time>
   <time name="total">   31.77   31.79</time>
   <energy>
    <i name="e_fr_energy">   -694.23048118 </i>
    <i name="e_wo_entrp">   -694.23048118 </i>
    <i name="e_0_energy">   -694.23048118 </i>
   </energy>
  </scstep>
  <scstep>
   <time name="dav">   31.24   31.25</time>
   <time name="total">   33.58   33.60</time>
   <energy>
    <i name="e_fr_energy">   -694.23050669 </i>
    <i name="e_wo_entrp">   -694.23050669 </i>
    <i name="e_0_energy">   -694.23050669 </i>
   </energy>
  </scstep>
  <scstep>
   <time name="dav">   26.02   26.03</time>
   <time name="total">   28.35   28.36</time>
   <energy>
    <i name="e_fr_energy">   -694.23054477 </i>
    <i name="e_wo_entrp">   -694.23054477 </i>
    <i name="e_0_energy">   -694.23054477 </i>
   </energy>
  </scstep>
  <scstep>
   <time name="dav">   26.55   26.57</time>
   <time name="total">   28.90   28.91</time>
   <energy>
    <i name="e_fr_energy">   -694.23057412 </i>
    <i name="e_wo_entrp">   -694.23057412 </i>
    <i name="e_0_energy">   -694.23057412 </i>
   </energy>
  </scstep>
  <scstep>
   <time name="dav">   17.68   17.69</time>
   <time name="total">   20.02   20.03</time>
   <energy>
    <i name="e_fr_energy">   -694.23059655 </i>
    <i name="e_wo_entrp">   -694.23059655 </i>
    <i name="e_0_energy">   -694.23059655 </i>
   </energy>
  </scstep>
  <scstep>
   <time name="dav">   16.11   16.12</time>
   <time name="total">   18.44   18.45</time>
   <energy>
    <i name="e_fr_energy">   -694.23062615 </i>
    <i name="e_wo_entrp">   -694.23062615 </i>
    <i name="e_0_energy">   -694.23062615 </i>
   </energy>
  </scstep>
  <scstep>
   <time name="dav">   17.55   17.56</time>
   <time name="total">   19.89   19.90</time>
   <energy>
    <i name="e_fr_energy">   -694.23064904 </i>
    <i name="e_wo_entrp">   -694.23064904 </i>
    <i name="e_0_energy">   -694.23064904 </i>
   </energy>
  </scstep>
  <scstep>
   <time name="dav">   15.26   15.27</time>
   <time name="total">   17.61   17.62</time>
   <energy>
    <i name="e_fr_energy">   -694.23066310 </i>
    <i name="e_wo_entrp">   -694.23066310 </i>
    <i name="e_0_energy">   -694.23066310 </i>
   </energy>
  </scstep>
  <scstep>
   <time name="dav">   14.74   14.74</time>
   <time name="total">   17.08   17.08</time>
   <energy>
    <i name="e_fr_energy">   -694.23067616 </i>
    <i name="e_wo_entrp">   -694.23067616 </i>
    <i name="e_0_energy">   -694.23067616 </i>
   </energy>
  </scstep>
  <scstep>
   <time name="dav">   14.25   14.25</time>
   <time name="total">   16.58   16.59</time>
   <energy>
    <i name="e_fr_energy">   -694.23068174 </i>
    <i name="e_wo_entrp">   -694.23068174 </i>
    <i name="e_0_energy">   -694.23068174 </i>
   </energy>
  </scstep>
  <scstep>
   <time name="dav">   14.24   14.25</time>
   <time name="total">   16.57   16.58</time>
   <energy>
    <i name="e_fr_energy">   -694.23068796 </i>
    <i name="e_wo_entrp">   -694.23068796 </i>
    <i name="e_0_energy">   -694.23068796 </i>
   </energy>
  </scstep>
  <scstep>
   <time name="dav">   14.74   14.75</time>
   <time name="total">   17.08   17.09</time>
   <energy>
    <i name="e_fr_energy">   -694.23069519 </i>
    <i name="e_wo_entrp">   -694.23069519 </i>
    <i name="e_0_energy">   -694.23069519 </i>
   </energy>
  </scstep>
  <scstep>
   <time name="dav">   14.26   14.26</time>
   <time name="total">   16.59   16.60</time>
   <energy>
    <i name="e_fr_energy">   -694.23069951 </i>
    <i name="e_wo_entrp">   -694.23069951 </i>
    <i name="e_0_energy">   -694.23069951 </i>
   </energy>
  </scstep>
  <scstep>
   <time name="dav">   14.58   14.59</time>
   <time name="total">   16.93   16.93</time>
   <energy>
    <i name="e_fr_energy">   -694.23070451 </i>
    <i name="e_wo_entrp">   -694.23070451 </i>
    <i name="e_0_energy">   -694.23070451 </i>
   </energy>
  </scstep>
  <scstep>
   <time name="dav">   14.26   14.27</time>
   <time name="total">   16.60   16.61</time>
   <energy>
    <i name="e_fr_energy">   -694.23070883 </i>
    <i name="e_wo_entrp">   -694.23070883 </i>
    <i name="e_0_energy">   -694.23070883 </i>
   </energy>
  </scstep>
  <scstep>
   <time name="dav">   14.27   14.27</time>
   <time name="total">   16.61   16.62</time>
   <energy>
    <i name="e_fr_energy">   -694.23071066 </i>
    <i name="e_wo_entrp">   -694.23071066 </i>
    <i name="e_0_energy">   -694.23071066 </i>
   </energy>
  </scstep>
  <scstep>
   <time name="dav">   14.26   14.27</time>
   <time name="total">   15.52   15.53</time>
   <energy>
    <i name="alphaZ">   1974.14298321 </i>
    <i name="ewald"> 122438.58423160 </i>
    <i name="hartreedc">-179206.18387453 </i>
    <i name="XCdc">   2189.70325618 </i>
    <i name="pawpsdc">  55010.67572349 </i>
    <i name="pawaedc"> -54408.61061283 </i>
    <i name="eentropy">     -0.00000000 </i>
    <i name="bandstr">  -8525.28316541 </i>
    <i name="atom">  59832.74074702 </i>
    <i name="e_fr_energy">   -694.23071127 </i>
    <i name="e_wo_entrp">   -694.23071127 </i>
    <i name="e_0_energy">   -694.23071127 </i>
   </energy>
  </scstep>
  <structure>
   <crystal>
    <varray name="basis" >
     <v>      11.59820000       0.00000000       0.00000000 </v>
     <v>      -5.79910000      10.04433584       0.00000000 </v>
     <v>       0.00000000       0.00000000      21.04820000 </v>
    </varray>
    <i name="volume">   2452.03565189 </i>
    <varray name="rec_basis" >
     <v>       0.08622028       0.04977930       0.00000000 </v>
     <v>       0.00000000       0.09955860       0.00000000 </v>
     <v>       0.00000000       0.00000000       0.04751000 </v>
    </varray>
   </crystal>
   <varray name="positions" >
    <v>       0.00000017       0.99999983       0.46025383 </v>
    <v>       0.22222115       0.11111010       0.30996009 </v>
    <v>       0.11111000       0.22222000       0.15999000 </v>
    <v>       0.33333162       0.00000034       0.46025356 </v>
    <v>       0.55555619       0.11110853       0.30995979 </v>
    <v>       0.44444000       0.22222000       0.15999000 </v>
    <v>       0.66666774       0.99999881       0.46025397 </v>
    <v>       0.88889028       0.11110972       0.30995978 </v>
    <v>       0.77778000       0.22222000       0.15999000 </v>
    <v>       0.00000119       0.33333226       0.46025397 </v>
    <v>       0.22222237       0.44444419       0.30996007 </v>
    <v>       0.11111000       0.55556000       0.15999000 </v>
    <v>       0.33333264       0.33333279       0.46025370 </v>
    <v>       0.55555737       0.44444263       0.30995979 </v>
    <v>       0.44444000       0.55556000       0.15999000 </v>
    <v>       0.66666874       0.33333126       0.46025410 </v>
    <v>       0.88889147       0.44444381       0.30995979 </v>
    <v>       0.77778000       0.55556000       0.15999000 </v>
    <v>       0.99999966       0.66666838       0.46025356 </v>
[...]
       <r>   -21.9034     0.0000    27.0000 </r>
       <r>   -21.7697     0.0000    27.0000 </r>
       <r>   -21.6361     0.0000    27.0000 </r>
       <r>   -21.5024     0.0000    27.0000 </r>
       <r>   -21.3687     0.0000    27.0000 </r>
       <r>   -21.2350     0.0000    27.0000 </r>
       <r>   -21.1013     0.0000    27.0000 </r>
       <r>   -20.9677     0.0000    27.0000 </r>
       <r>   -20.8340     0.0000    27.0000 </r>
       <r>   -20.7003     0.0000    27.0000 </r>
       <r>   -20.5666     0.0000    27.0000 </r>
       <r>   -20.4330     0.0084    27.0011 </r>
       <r>   -20.2993     5.7525    27.7701 </r>
       <r>   -20.1656    10.9120    29.2288 </r>
       <r>   -20.0319    25.0215    32.5736 </r>
       <r>   -19.8983    54.6103    39.8737 </r>
       <r>   -19.7646    37.0700    44.8291 </r>
       <r>   -19.6309    25.3259    48.2146 </r>
       <r>   -19.4972    10.4974    49.6179 </r>
       <r>   -19.3635    16.0889    51.7686 </r>
       <r>   -19.2299    19.9800    54.4394 </r>
       <r>   -19.0962    18.4561    56.9066 </r>
       <r>   -18.9625    20.3122    59.6219 </r>
       <r>   -18.8288    30.4032    63.6861 </r>
       <r>   -18.6952     8.4093    64.8102 </r>
       <r>   -18.5615     9.8613    66.1284 </r>
       <r>   -18.4278    30.0796    70.1494 </r>
       <r>   -18.2941    24.7393    73.4564 </r>
       <r>   -18.1605    18.1640    75.8845 </r>
       <r>   -18.0268    25.2138    79.2550 </r>
       <r>   -17.8931    38.3433    84.3807 </r>
       <r>   -17.7594    41.0928    89.8738 </r>
       <r>   -17.6257    22.8997    92.9350 </r>
       <r>   -17.4921    59.5465   100.8950 </r>
       <r>   -17.3584    40.9610   106.3705 </r>
       <r>   -17.2247    25.0461   109.7186 </r>
       <r>   -17.0910     5.8924   110.5063 </r>
       <r>   -16.9574     7.3225   111.4851 </r>
       <r>   -16.8237     4.4157   112.0754 </r>
       <r>   -16.6900    30.2914   116.1247 </r>
       <r>   -16.5563    31.4180   120.3245 </r>
       <r>   -16.4227    19.7598   122.9660 </r>
       <r>   -16.2890     6.2171   123.7970 </r>
       <r>   -16.1553    32.8470   128.1879 </r>
       <r>   -16.0216    30.4168   132.2539 </r>
       <r>   -15.8879    23.6436   135.4145 </r>
       <r>   -15.7543    29.0728   139.3009 </r>
       <r>   -15.6206    49.5303   145.9219 </r>
       <r>   -15.4869    11.9207   147.5155 </r>
       <r>   -15.3532    24.4363   150.7820 </r>
       <r>   -15.2196    24.7721   154.0935 </r>
       <r>   -15.0859    29.7657   158.0725 </r>
       <r>   -14.9522    23.8437   161.2598 </r>
       <r>   -14.8185    32.1607   165.5590 </r>
       <r>   -14.6849    47.3572   171.8895 </r>
       <r>   -14.5512    23.0686   174.9733 </r>
       <r>   -14.4175    16.3064   177.1530 </r>
       <r>   -14.2838    11.2907   178.6624 </r>
       <r>   -14.1502     5.6110   179.4124 </r>
       <r>   -14.0165     4.3858   179.9987 </r>
       <r>   -13.8828     0.0098   180.0000 </r>
       <r>   -13.7491     0.0000   180.0000 </r>
       <r>   -13.6154     0.0000   180.0000 </r>
       <r>   -13.4818     0.0000   180.0000 </r>
       <r>   -13.3481     0.0000   180.0000 </r>
       <r>   -13.2144     0.0000   180.0000 </r>
       <r>   -13.0807     0.0000   180.0000 </r>
       <r>   -12.9471     0.0000   180.0000 </r>
       <r>   -12.8134     0.0000   180.0000 </r>
       <r>   -12.6797     0.0000   180.0000 </r>
       <r>   -12.5460     0.0000   180.0000 </r>
       <r>   -12.4124     0.0000   180.0000 </r>
       <r>   -12.2787     0.0000   180.0000 </r>
       <r>   -12.1450     0.0000   180.0000 </r>
       <r>   -12.0113     0.0000   180.0000 </r>
       <r>   -11.8776     0.0000   180.0000 </r>
       <r>   -11.7440     0.0000   180.0000 </r>
       <r>   -11.6103     0.0000   180.0000 </r>
       <r>   -11.4766     0.0000   180.0000 </r>
       <r>   -11.3429     0.0000   180.0000 </r>
       <r>   -11.2093     0.0000   180.0000 </r>
       <r>   -11.0756     0.0000   180.0000 </r>
       <r>   -10.9419     0.0000   180.0000 </r>
       <r>   -10.8082     0.0000   180.0000 </r>
       <r>   -10.6746     0.0000   180.0000 </r>
       <r>   -10.5409     0.0000   180.0000 </r>
       <r>   -10.4072     0.0000   180.0000 </r>
       <r>   -10.2735     0.0000   180.0000 </r>
       <r>   -10.1398     0.0000   180.0000 </r>
       <r>   -10.0062     0.0000   180.0000 </r>
       <r>    -9.8725     0.0000   180.0000 </r>
       <r>    -9.7388     0.0000   180.0000 </r>
       <r>    -9.6051     0.0000   180.0000 </r>
       <r>    -9.4715     0.0000   180.0000 </r>
       <r>    -9.3378     0.0000   180.0000 </r>
       <r>    -9.2041     0.0000   180.0000 </r>
       <r>    -9.0704     0.0000   180.0000 </r>
       <r>    -8.9368     0.0000   180.0000 </r>
       <r>    -8.8031     0.0000   180.0000 </r>
       <r>    -8.6694     0.0000   180.0000 </r>
       <r>    -8.5357     0.0000   180.0000 </r>
       <r>    -8.4020     0.0000   180.0000 </r>
       <r>    -8.2684     0.0000   180.0000 </r>
       <r>    -8.1347     0.0000   180.0000 </r>
       <r>    -8.0010     0.0000   180.0000 </r>
       <r>    -7.8673     0.0000   180.0000 </r>
       <r>    -7.7337     0.0000   180.0000 </r>
       <r>    -7.6000     0.0000   180.0000 </r>
       <r>    -7.4663     0.0000   180.0000 </r>
       <r>    -7.3326     0.0000   180.0000 </r>
       <r>    -7.1990     0.0000   180.0000 </r>
       <r>    -7.0653     0.0000   180.0000 </r>
       <r>    -6.9316     0.0000   180.0000 </r>
       <r>    -6.7979     0.0000   180.0000 </r>
       <r>    -6.6642     0.0000   180.0000 </r>
       <r>    -6.5306     0.0000   180.0000 </r>
       <r>    -6.3969     0.0000   180.0000 </r>
       <r>    -6.2632     0.0000   180.0000 </r>
       <r>    -6.1295     0.0000   180.0000 </r>
       <r>    -5.9959     0.0000   180.0000 </r>
       <r>    -5.8622     0.0000   180.0000 </r>
       <r>    -5.7285     0.0000   180.0000 </r>
       <r>    -5.5948     0.0000   180.0000 </r>
       <r>    -5.4612     0.0000   180.0000 </r>
       <r>    -5.3275     0.0027   180.0004 </r>
       <r>    -5.1938     2.0370   180.2727 </r>
       <r>    -5.0601    12.4801   181.9410 </r>
       <r>    -4.9264    13.8364   183.7906 </r>
       <r>    -4.7928    24.9129   187.1208 </r>
       <r>    -4.6591    21.1102   189.9428 </r>
       <r>    -4.5254    34.6340   194.5725 </r>
       <r>    -4.3917    52.2604   201.5585 </r>
       <r>    -4.2581    59.5001   209.5123 </r>
       <r>    -4.1244    55.2702   216.9007 </r>
       <r>    -3.9907    35.1809   221.6036 </r>
       <r>    -3.8570    24.3799   224.8626 </r>
       <r>    -3.7234    52.6997   231.9073 </r>
       <r>    -3.5897    41.7243   237.4849 </r>
       <r>    -3.4560    54.5213   244.7731 </r>
       <r>    -3.3223    36.7082   249.6802 </r>
       <r>    -3.1886    32.3851   254.0093 </r>
       <r>    -3.0550    33.1736   258.4439 </r>
       <r>    -2.9213    48.0615   264.8686 </r>
       <r>    -2.7876    47.9497   271.2783 </r>
       <r>    -2.6539    57.0176   278.9003 </r>
       <r>    -2.5203    91.5011   291.1318 </r>
       <r>    -2.3866    77.1955   301.4511 </r>
       <r>    -2.2529    51.6486   308.3553 </r>
       <r>    -2.1192    89.0400   320.2579 </r>
       <r>    -1.9856    82.0928   331.2318 </r>
       <r>    -1.8519    78.3891   341.7106 </r>
       <r>    -1.7182    70.1943   351.0940 </r>
       <r>    -1.5845    56.1688   358.6024 </r>
       <r>    -1.4508    10.4428   359.9984 </r>
       <r>    -1.3172     0.0119   360.0000 </r>
       <r>    -1.1835     0.0000   360.0000 </r>
       <r>    -1.0498     0.0001   360.0000 </r>
       <r>    -0.9161     4.5293   360.6055 </r>
       <r>    -0.7825   117.2029   376.2728 </r>
       <r>    -0.6488    86.4606   387.8306 </r>
       <r>    -0.5151    60.3147   395.8933 </r>
       <r>    -0.3814     0.7984   396.0000 </r>
       <r>    -0.2478     0.0000   396.0000 </r>
       <r>    -0.1141     0.0000   396.0000 </r>
       <r>     0.0196     0.0000   396.0000 </r>
       <r>     0.1533     0.0000   396.0000 </r>
       <r>     0.2870     0.0000   396.0000 </r>
       <r>     0.4206     0.0000   396.0000 </r>
       <r>     0.5543     0.0000   396.0000 </r>
       <r>     0.6880     1.5108   396.2020 </r>
       <r>     0.8217    63.3258   404.6672 </r>
       <r>     0.9553   181.8692   428.9789 </r>
       <r>     1.0890   317.2068   471.3821 </r>
       <r>     1.2227   325.9137   514.9492 </r>
       <r>     1.3564    97.5155   527.9848 </r>
       <r>     1.4900     0.1140   528.0000 </r>
       <r>     1.6237     0.0000   528.0000 </r>
       <r>     1.7574     0.0000   528.0000 </r>
       <r>     1.8911     0.0000   528.0000 </r>
       <r>     2.0248     0.0000   528.0000 </r>
       <r>     2.1584     0.0000   528.0000 </r>
       <r>     2.2921     0.0000   528.0000 </r>
       <r>     2.4258     0.0000   528.0000 </r>
       <r>     2.5595     0.0000   528.0000 </r>
       <r>     2.6931     0.0000   528.0000 </r>
       <r>     2.8268     0.0000   528.0000 </r>
       <r>     2.9605     0.0000   528.0000 </r>
       <r>     3.0942     0.0000   528.0000 </r>
      </set>
     </set>
    </array>
   </total>
  </dos>
 </calculation>
 <structure name="finalpos" >
  <crystal>
   <varray name="basis" >
    <v>      11.59820000       0.00000000       0.00000000 </v>
    <v>      -5.79910000      10.04433584       0.00000000 </v>
    <v>       0.00000000       0.00000000      21.04820000 </v>
   </varray>
   <i name="volume">   2452.03565189 </i>
   <varray name="rec_basis" >
    <v>       0.08622028       0.04977930       0.00000000 </v>
    <v>       0.00000000       0.09955860       0.00000000 </v>
    <v>       0.00000000       0.00000000       0.04751000 </v>
   </varray>
  </crystal>
  <varray name="positions" >
   <v>       0.00000061       0.99999939       0.46441286 </v>
   <v>       0.22222232       0.11111202       0.31200954 </v>
   <v>       0.11111000       0.22222000       0.15999000 </v>
   <v>       0.33333100       0.99999679       0.46441216 </v>
   <v>       0.55555794       0.11111340       0.31200645 </v>
   <v>       0.44444000       0.22222000       0.15999000 </v>
   <v>       0.66666657       0.99999900       0.46441241 </v>
   <v>       0.88888794       0.11111206       0.31200867 </v>
   <v>       0.77778000       0.22222000       0.15999000 </v>
   <v>       0.00000100       0.33333343       0.46441241 </v>
   <v>       0.22222097       0.44444199       0.31200737 </v>
   <v>       0.11111000       0.55556000       0.15999000 </v>
   <v>       0.33333145       0.33333089       0.46441168 </v>
   <v>       0.55555667       0.44444333       0.31200432 </v>
   <v>       0.44444000       0.55556000       0.15999000 </v>
   <v>       0.66666700       0.33333300       0.46441195 </v>
   <v>       0.88888660       0.44444206       0.31200645 </v>
   <v>       0.77778000       0.55556000       0.15999000 </v>
   <v>       0.00000321       0.66666900       0.46441216 </v>
   <v>       0.22222244       0.77777756       0.31201043 </v>
   <v>       0.11111000       0.88889000       0.15999000 </v>
   <v>       0.33333366       0.66666634       0.46441147 </v>
   <v>       0.55555801       0.77777903       0.31200737 </v>
   <v>       0.44444000       0.88889000       0.15999000 </v>
   <v>       0.66666911       0.66666855       0.46441168 </v>
   <v>       0.88888798       0.77777768       0.31200954 </v>
   <v>       0.77778000       0.88889000       0.15999000 </v>
   <v>       0.00000000       0.00000000       0.12250000 </v>
   <v>       0.00000108       0.99999892       0.57677320 </v>
   <v>       0.11110931       0.22221952       0.27421073 </v>
   <v>       0.22222329       0.11111249       0.42600356 </v>
   <v>       0.11111000       0.22222000       0.04751000 </v>
   <v>       0.11111211       0.22222378       0.50365327 </v>
   <v>       0.00000017       0.99999983       0.35011707 </v>
   <v>       0.22222000       0.11111000       0.19748000 </v>
   <v>       0.33333000       0.00000000       0.12250000 </v>
   <v>       0.33332516       0.99999964       0.57677258 </v>
   <v>       0.44444155       0.22221785       0.27420960 </v>
   <v>       0.55555792       0.11111386       0.42600349 </v>
   <v>       0.44444000       0.22222000       0.04751000 </v>
   <v>       0.44444392       0.22222279       0.50365149 </v>
   <v>       0.33333265       0.99999823       0.35011617 </v>
   <v>       0.55556000       0.11111000       0.19748000 </v>
   <v>       0.66667000       0.00000000       0.12250000 </v>
   <v>       0.66667706       0.00000167       0.57677236 </v>
   <v>       0.77777911       0.22222089       0.27421091 </v>
   <v>       0.88888706       0.11111294       0.42600446 </v>
   <v>       0.77778000       0.22222000       0.04751000 </v>
   <v>       0.77777605       0.22222395       0.50365313 </v>
   <v>       0.66666528       0.99999820       0.35011590 </v>
   <v>       0.88889000       0.11111000       0.19748000 </v>
   <v>       0.00000000       0.33333000       0.12250000 </v>
   <v>       0.99999833       0.33332294       0.57677236 </v>
   <v>       0.11111236       0.55555708       0.27420939 </v>
   <v>       0.22222227       0.44444160       0.42600258 </v>
   <v>       0.11111000       0.55556000       0.04751000 </v>
   <v>       0.11111326       0.55555590       0.50365164 </v>
   <v>       0.00000180       0.33333472       0.35011590 </v>
   <v>       0.22222000       0.44444000       0.19748000 </v>
   <v>       0.33333000       0.33333000       0.12250000 </v>
   <v>       0.33332233       0.33332315       0.57677182 </v>
   <v>       0.44444459       0.55555541       0.27420826 </v>
   <v>       0.55555702       0.44444298       0.42600251 </v>
   <v>       0.44444000       0.55556000       0.04751000 </v>
   <v>       0.44444511       0.55555489       0.50364972 </v>
   <v>       0.33333431       0.33333316       0.35011503 </v>
   <v>       0.55556000       0.44444000       0.19748000 </v>
   <v>       0.66667000       0.33333000       0.12250000 </v>
   <v>       0.66667451       0.33332549       0.57677160 </v>
   <v>       0.77778215       0.55555845       0.27420960 </v>
   <v>       0.88888614       0.44444208       0.42600349 </v>
   <v>       0.77778000       0.55556000       0.04751000 </v>
   <v>       0.77777721       0.55555608       0.50365149 </v>
   <v>       0.66666694       0.33333306       0.35011476 </v>
   <v>       0.88889000       0.44444000       0.19748000 </v>
   <v>       0.00000000       0.66667000       0.12250000 </v>
   <v>       0.00000036       0.66667484       0.57677258 </v>
   <v>       0.11111068       0.88888932       0.27421053 </v>
   <v>       0.22222371       0.77777629       0.42600266 </v>
   <v>       0.11111000       0.88889000       0.04751000 </v>
   <v>       0.11111226       0.88888774       0.50365339 </v>
   <v>       0.00000177       0.66666735       0.35011617 </v>
   <v>       0.22222000       0.77778000       0.19748000 </v>
   <v>       0.33333000       0.66667000       0.12250000 </v>
   <v>       0.33332418       0.66667582       0.57677205 </v>
   <v>       0.44444292       0.88888764       0.27420939 </v>
   <v>       0.55555840       0.77777773       0.42600258 </v>
   <v>       0.44444000       0.88889000       0.04751000 </v>
   <v>       0.44444410       0.88888674       0.50365164 </v>
   <v>       0.33333426       0.66666574       0.35011527 </v>
   <v>       0.55556000       0.77778000       0.19748000 </v>
   <v>       0.66667000       0.66667000       0.12250000 </v>
   <v>       0.66667685       0.66667767       0.57677182 </v>
   <v>       0.77778048       0.88889069       0.27421073 </v>
   <v>       0.88888751       0.77777671       0.42600356 </v>
   <v>       0.77778000       0.88889000       0.04751000 </v>
   <v>       0.77777622       0.88888789       0.50365327 </v>
   <v>       0.66666684       0.66666569       0.35011503 </v>
   <v>       0.88889000       0.77778000       0.19748000 </v>
  </varray>
  <varray name="selective"  type="logical" >
   <v type="logical" >  T  T  T </v>
   <v type="logical" >  T  T  T </v>
   <v type="logical" >  F  F  F </v>
   <v type="logical" >  T  T  T </v>
   <v type="logical" >  T  T  T </v>
   <v type="logical" >  F  F  F </v>
   <v type="logical" >  T  T  T </v>
   <v type="logical" >  T  T  T </v>
   <v type="logical" >  F  F  F </v>
   <v type="logical" >  T  T  T </v>
   <v type="logical" >  T  T  T </v>
   <v type="logical" >  F  F  F </v>
   <v type="logical" >  T  T  T </v>
   <v type="logical" >  T  T  T </v>
   <v type="logical" >  F  F  F </v>
   <v type="logical" >  T  T  T </v>
   <v type="logical" >  T  T  T </v>
   <v type="logical" >  F  F  F </v>
   <v type="logical" >  T  T  T </v>
   <v type="logical" >  T  T  T </v>
   <v type="logical" >  F  F  F </v>
   <v type="logical" >  T  T  T </v>
   <v type="logical" >  T  T  T </v>
   <v type="logical" >  F  F  F </v>
   <v type="logical" >  T  T  T </v>
   <v type="logical" >  T  T  T </v>
   <v type="logical" >  F  F  F </v>
   <v type="logical" >  F  F  F </v>
   <v type="logical" >  T  T  T </v>
   <v type="logical" >  T  T  T </v>
   <v type="logical" >  T  T  T </v>
   <v type="logical" >  F  F  F </v>
   <v type="logical" >  T  T  T </v>
   <v type="logical" >  T  T  T </v>
   <v type="logical" >  F  F  F </v>
   <v type="logical" >  F  F  F </v>
   <v type="logical" >  T  T  T </v>
   <v type="logical" >  T  T  T </v>
   <v type="logical" >  T  T  T </v>
   <v type="logical" >  F  F  F </v>
   <v type="logical" >  T  T  T </v>
   <v type="logical" >  T  T  T </v>
   <v type="logical" >  F  F  F </v>
   <v type="logical" >  F  F  F </v>
   <v type="logical" >  T  T  T </v>
   <v type="logical" >  T  T  T </v>
   <v type="logical" >  T  T  T </v>
   <v type="logical" >  F  F  F </v>
   <v type="logical" >  T  T  T </v>
   <v type="logical" >  T  T  T </v>
   <v type="logical" >  F  F  F </v>
   <v type="logical" >  F  F  F </v>
   <v type="logical" >  T  T  T </v>
   <v type="logical" >  T  T  T </v>
   <v type="logical" >  T  T  T </v>
   <v type="logical" >  F  F  F </v>
   <v type="logical" >  T  T  T </v>
   <v type="logical" >  T  T  T </v>
   <v type="logical" >  F  F  F </v>
   <v type="logical" >  F  F  F </v>
   <v type="logical" >  T  T  T </v>
   <v type="logical" >  T  T  T </v>
   <v type="logical" >  T  T  T </v>
   <v type="logical" >  F  F  F </v>
   <v type="logical" >  T  T  T </v>
   <v type="logical" >  T  T  T </v>
   <v type="logical" >  F  F  F </v>
   <v type="logical" >  F  F  F </v>
   <v type="logical" >  T  T  T </v>
   <v type="logical" >  T  T  T </v>
   <v type="logical" >  T  T  T </v>
   <v type="logical" >  F  F  F </v>
   <v type="logical" >  T  T  T </v>
   <v type="logical" >  T  T  T </v>
   <v type="logical" >  F  F  F </v>
   <v type="logical" >  F  F  F </v>
   <v type="logical" >  T  T  T </v>
   <v type="logical" >  T  T  T </v>
   <v type="logical" >  T  T  T </v>
   <v type="logical" >  F  F  F </v>
   <v type="logical" >  T  T  T </v>
   <v type="logical" >  T  T  T </v>
   <v type="logical" >  F  F  F </v>
   <v type="logical" >  F  F  F </v>
   <v type="logical" >  T  T  T </v>
   <v type="logical" >  T  T  T </v>
   <v type="logical" >  T  T  T </v>
   <v type="logical" >  F  F  F </v>
   <v type="logical" >  T  T  T </v>
   <v type="logical" >  T  T  T </v>
   <v type="logical" >  F  F  F </v>
   <v type="logical" >  F  F  F </v>
   <v type="logical" >  T  T  T </v>
   <v type="logical" >  T  T  T </v>
   <v type="logical" >  T  T  T </v>
   <v type="logical" >  F  F  F </v>
   <v type="logical" >  T  T  T </v>
   <v type="logical" >  T  T  T </v>
   <v type="logical" >  F  F  F </v>
  </varray>
  <nose>
   <v>      -3.00000000       0.00000000       0.00010000       0.00010000 </v>
  </nose>
 </structure>
</modeling>
