unknown system                          
           1
    11.598200    0.000000    0.000000
    -5.799100   10.044336    0.000000
     0.000000    0.000000   21.048200
   Ce   O 
    27    72
Direct configuration=     1
   0.00000000  0.00000000  0.45993000
   0.22222000  0.11111000  0.30996000
   0.11111000  0.22222000  0.15999000
   0.33333000  0.00000000  0.45993000
   0.55556000  0.11111000  0.30996000
   0.44444000  0.22222000  0.15999000
   0.66667000  0.00000000  0.45993000
   0.88889000  0.11111000  0.30996000
   0.77778000  0.22222000  0.15999000
   0.00000000  0.33333000  0.45993000
   0.22222000  0.44444000  0.30996000
   0.11111000  0.55556000  0.15999000
   0.33333000  0.33333000  0.45993000
   0.55556000  0.44444000  0.30996000
   0.44444000  0.55556000  0.15999000
   0.66667000  0.33333000  0.45993000
   0.88889000  0.44444000  0.30996000
   0.77778000  0.55556000  0.15999000
   0.00000000  0.66667000  0.45993000
   0.22222000  0.77778000  0.30996000
   0.11111000  0.88889000  0.15999000
   0.33333000  0.66667000  0.45993000
   0.55556000  0.77778000  0.30996000
   0.44444000  0.88889000  0.15999000
   0.66667000  0.66667000  0.45993000
   0.88889000  0.77778000  0.30996000
   0.77778000  0.88889000  0.15999000
   0.00000000  0.00000000  0.12250000
   0.00000000  0.00000000  0.57241000
   0.11111000  0.22222000  0.27247000
   0.22222000  0.11111000  0.42244000
   0.11111000  0.22222000  0.04751000
   0.11111000  0.22222000  0.49742000
   0.00000000  0.00000000  0.34745000
   0.22222000  0.11111000  0.19748000
   0.33333000  0.00000000  0.12250000
   0.33333000  0.00000000  0.57241000
   0.44444000  0.22222000  0.27247000
   0.55556000  0.11111000  0.42244000
   0.44444000  0.22222000  0.04751000
   0.44444000  0.22222000  0.49742000
   0.33333000  0.00000000  0.34745000
   0.55556000  0.11111000  0.19748000
   0.66667000  0.00000000  0.12250000
   0.66667000  0.00000000  0.57241000
   0.77778000  0.22222000  0.27247000
   0.88889000  0.11111000  0.42244000
   0.77778000  0.22222000  0.04751000
   0.77778000  0.22222000  0.49742000
   0.66667000  0.00000000  0.34745000
   0.88889000  0.11111000  0.19748000
   0.00000000  0.33333000  0.12250000
   0.00000000  0.33333000  0.57241000
   0.11111000  0.55556000  0.27247000
   0.22222000  0.44444000  0.42244000
   0.11111000  0.55556000  0.04751000
   0.11111000  0.55556000  0.49742000
   0.00000000  0.33333000  0.34745000
   0.22222000  0.44444000  0.19748000
   0.33333000  0.33333000  0.12250000
   0.33333000  0.33333000  0.57241000
   0.44444000  0.55556000  0.27247000
   0.55556000  0.44444000  0.42244000
   0.44444000  0.55556000  0.04751000
   0.44444000  0.55556000  0.49742000
   0.33333000  0.33333000  0.34745000
   0.55556000  0.44444000  0.19748000
   0.66667000  0.33333000  0.12250000
   0.66667000  0.33333000  0.57241000
   0.77778000  0.55556000  0.27247000
   0.88889000  0.44444000  0.42244000
   0.77778000  0.55556000  0.04751000
   0.77778000  0.55556000  0.49742000
   0.66667000  0.33333000  0.34745000
   0.88889000  0.44444000  0.19748000
   0.00000000  0.66667000  0.12250000
   0.00000000  0.66667000  0.57241000
   0.11111000  0.88889000  0.27247000
   0.22222000  0.77778000  0.42244000
   0.11111000  0.88889000  0.04751000
   0.11111000  0.88889000  0.49742000
   0.00000000  0.66667000  0.34745000
   0.22222000  0.77778000  0.19748000
   0.33333000  0.66667000  0.12250000
   0.33333000  0.66667000  0.57241000
   0.44444000  0.88889000  0.27247000
   0.55556000  0.77778000  0.42244000
   0.44444000  0.88889000  0.04751000
   0.44444000  0.88889000  0.49742000
   0.33333000  0.66667000  0.34745000
   0.55556000  0.77778000  0.19748000
   0.66667000  0.66667000  0.12250000
   0.66667000  0.66667000  0.57241000
   0.77778000  0.88889000  0.27247000
   0.88889000  0.77778000  0.42244000
   0.77778000  0.88889000  0.04751000
   0.77778000  0.88889000  0.49742000
   0.66667000  0.66667000  0.34745000
   0.88889000  0.77778000  0.19748000
Direct configuration=     2
   0.00000017  0.99999983  0.46025383
   0.22222115  0.11111010  0.30996009
   0.11111000  0.22222000  0.15999000
   0.33333162  0.00000034  0.46025356
   0.55555619  0.11110853  0.30995979
   0.44444000  0.22222000  0.15999000
   0.66666774  0.99999881  0.46025397
   0.88889028  0.11110972  0.30995978
   0.77778000  0.22222000  0.15999000
   0.00000119  0.33333226  0.46025397
   0.22222237  0.44444419  0.30996007
   0.11111000  0.55556000  0.15999000
   0.33333264  0.33333279  0.46025370
   0.55555737  0.44444263  0.30995979
   0.44444000  0.55556000  0.15999000
   0.66666874  0.33333126  0.46025410
   0.88889147  0.44444381  0.30995979
   0.77778000  0.55556000  0.15999000
   0.99999966  0.66666838  0.46025356
   0.22222077  0.77777923  0.30996039
   0.11111000  0.88889000  0.15999000
   0.33333113  0.66666887  0.46025328
   0.55555581  0.77777763  0.30996007
   0.44444000  0.88889000  0.15999000
   0.66666721  0.66666736  0.46025370
   0.88888990  0.77777885  0.30996009
   0.77778000  0.88889000  0.15999000
   0.00000000  0.00000000  0.12250000
   0.00000005  0.99999995  0.57255467
   0.11111001  0.22222042  0.27254989
   0.22222013  0.11111042  0.42231552
   0.11111000  0.22222000  0.04751000
   0.11111022  0.22222032  0.49791325
   0.99999989  0.00000011  0.34737027
   0.22222000  0.11111000  0.19748000
   0.33333000  0.00000000  0.12250000
   0.33333012  0.00000007  0.57255450
   0.44444263  0.22222062  0.27254992
   0.55555891  0.11111030  0.42231531
   0.44444000  0.22222000  0.04751000
   0.44444143  0.22222026  0.49791291
   0.33333203  0.00000109  0.34737049
   0.55556000  0.11111000  0.19748000
   0.66667000  0.00000000  0.12250000
   0.66666992  0.99999993  0.57255457
   0.77777972  0.22222028  0.27255017
   0.88888976  0.11111024  0.42231540
   0.77778000  0.22222000  0.04751000
   0.77777988  0.22222012  0.49791331
   0.66666913  0.99999981  0.34736988
   0.88889000  0.11111000  0.19748000
   0.00000000  0.33333000  0.12250000
   0.00000007  0.33333008  0.57255457
   0.11110966  0.55555752  0.27254964
   0.22222005  0.44444127  0.42231542
   0.11111000  0.55556000  0.04751000
   0.11111008  0.55555877  0.49791287
   0.00000019  0.33333087  0.34736988
   0.22222000  0.44444000  0.19748000
   0.33333000  0.33333000  0.12250000
   0.33333014  0.33333017  0.57255440
   0.44444229  0.55555771  0.27254967
   0.55555884  0.44444116  0.42231521
   0.44444000  0.55556000  0.04751000
   0.44444129  0.55555871  0.49791250
   0.33333233  0.33333185  0.34737010
   0.55556000  0.44444000  0.19748000
   0.66667000  0.33333000  0.12250000
   0.66666995  0.33333005  0.57255447
   0.77777938  0.55555737  0.27254992
   0.88888970  0.44444109  0.42231531
   0.77778000  0.55556000  0.04751000
   0.77777974  0.55555857  0.49791291
   0.66666943  0.33333057  0.34736949
   0.88889000  0.44444000  0.19748000
   0.00000000  0.66667000  0.12250000
   0.99999993  0.66666988  0.57255450
   0.11110987  0.88889013  0.27254960
   0.22221995  0.77778005  0.42231564
   0.11111000  0.88889000  0.04751000
   0.11111001  0.88888999  0.49791320
   0.99999891  0.66666797  0.34737049
   0.22222000  0.77778000  0.19748000
   0.33333000  0.66667000  0.12250000
   0.33333000  0.66667000  0.57255431
   0.44444248  0.88889034  0.27254964
   0.55555873  0.77777995  0.42231542
   0.44444000  0.88889000  0.04751000
   0.44444123  0.88888992  0.49791287
   0.33333105  0.66666895  0.34737071
   0.55556000  0.77778000  0.19748000
   0.66667000  0.66667000  0.12250000
   0.66666983  0.66666986  0.57255440
   0.77777958  0.88888999  0.27254989
   0.88888958  0.77777987  0.42231552
   0.77778000  0.88889000  0.04751000
   0.77777968  0.88888978  0.49791325
   0.66666815  0.66666767  0.34737010
   0.88889000  0.77778000  0.19748000
Direct configuration=     3
   0.00000044  0.99999956  0.46075882
   0.22222295  0.11111027  0.30996022
   0.11111000  0.22222000  0.15999000
   0.33333414  0.00000086  0.46075814
   0.55555024  0.11110623  0.30995946
   0.44444000  0.22222000  0.15999000
   0.66666420  0.99999696  0.46075918
   0.88889070  0.11110930  0.30995942
   0.77778000  0.22222000  0.15999000
   0.00000304  0.33333580  0.46075918
   0.22222606  0.44445073  0.30996018
   0.11111000  0.55556000  0.15999000
   0.33333675  0.33333714  0.46075850
   0.55555328  0.44444672  0.30995945
   0.44444000  0.55556000  0.15999000
   0.66666677  0.33333323  0.46075953
   0.88889377  0.44444976  0.30995946
   0.77778000  0.55556000  0.15999000
   0.99999914  0.66666586  0.46075814
   0.22222196  0.77777804  0.30996100
   0.11111000  0.88889000  0.15999000
   0.33333290  0.66666710  0.46075742
   0.55554927  0.77777394  0.30996018
   0.44444000  0.88889000  0.15999000
   0.66666286  0.66666325  0.46075850
   0.88888973  0.77777705  0.30996022
   0.77778000  0.88889000  0.15999000
   0.00000000  0.00000000  0.12250000
   0.00000012  0.99999988  0.57278028
   0.11111003  0.22222108  0.27267447
   0.22222032  0.11111107  0.42212139
   0.11111000  0.22222000  0.04751000
   0.11111056  0.22222083  0.49868246
   0.99999971  0.00000029  0.34724594
   0.22222000  0.11111000  0.19748000
   0.33333000  0.00000000  0.12250000
   0.33333031  0.00000017  0.57277985
   0.44444674  0.22222159  0.27267455
   0.55555722  0.11111077  0.42212086
   0.44444000  0.22222000  0.04751000
   0.44444367  0.22222067  0.49868159
   0.33333519  0.00000278  0.34724649
   0.55556000  0.11111000  0.19748000
   0.66667000  0.00000000  0.12250000
   0.66666980  0.99999983  0.57278001
   0.77777929  0.22222071  0.27267519
   0.88888939  0.11111061  0.42212109
   0.77778000  0.22222000  0.04751000
   0.77777968  0.22222032  0.49868261
   0.66666776  0.99999952  0.34724494
   0.88889000  0.11111000  0.19748000
   0.00000000  0.33333000  0.12250000
   0.00000017  0.33333020  0.57278001
   0.11110914  0.55555364  0.27267384
   0.22222012  0.44444324  0.42212115
   0.11111000  0.55556000  0.04751000
   0.11111020  0.55555685  0.49868148
   0.00000048  0.33333224  0.34724494
   0.22222000  0.44444000  0.19748000
   0.33333000  0.33333000  0.12250000
   0.33333037  0.33333044  0.57277958
   0.44444586  0.55555414  0.27267392
   0.55555704  0.44444296  0.42212060
   0.44444000  0.55556000  0.04751000
   0.44444331  0.55555669  0.49868054
   0.33333596  0.33333473  0.34724550
   0.55556000  0.44444000  0.19748000
   0.66667000  0.33333000  0.12250000
   0.66666987  0.33333013  0.57277977
   0.77777841  0.55555326  0.27267455
   0.88888923  0.44444278  0.42212086
   0.77778000  0.55556000  0.04751000
   0.77777933  0.55555633  0.49868159
   0.66666853  0.33333147  0.34724395
   0.88889000  0.44444000  0.19748000
   0.00000000  0.66667000  0.12250000
   0.99999983  0.66666969  0.57277985
   0.11110966  0.88889034  0.27267374
   0.22221988  0.77778012  0.42212170
   0.11111000  0.88889000  0.04751000
   0.11111003  0.88888997  0.49868234
   0.99999722  0.66666481  0.34724649
   0.22222000  0.77778000  0.19748000
   0.33333000  0.66667000  0.12250000
   0.33333001  0.66666999  0.57277936
   0.44444636  0.88889086  0.27267384
   0.55555676  0.77777988  0.42212115
   0.44444000  0.88889000  0.04751000
   0.44444315  0.88888980  0.49868148
   0.33333269  0.66666731  0.34724705
   0.55556000  0.77778000  0.19748000
   0.66667000  0.66667000  0.12250000
   0.66666956  0.66666963  0.57277958
   0.77777892  0.88888997  0.27267447
   0.88888893  0.77777968  0.42212139
   0.77778000  0.88889000  0.04751000
   0.77777917  0.88888944  0.49868246
   0.66666527  0.66666404  0.34724550
   0.88889000  0.77778000  0.19748000
Direct configuration=     4
   0.00000028  0.99999972  0.46080179
   0.22222310  0.11111106  0.30993901
   0.11111000  0.22222000  0.15999000
   0.33333499  0.00000134  0.46080136
   0.55555161  0.11110803  0.30993819
   0.44444000  0.22222000  0.15999000
   0.66666390  0.99999722  0.46080192
   0.88889017  0.11110983  0.30993828
   0.77778000  0.22222000  0.15999000
   0.00000278  0.33333610  0.46080192
   0.22222495  0.44444963  0.30993885
   0.11111000  0.55556000  0.15999000
   0.33333752  0.33333777  0.46080150
   0.55555338  0.44444662  0.30993805
   0.44444000  0.55556000  0.15999000
   0.66666639  0.33333361  0.46080207
   0.88889197  0.44444839  0.30993819
   0.77778000  0.55556000  0.15999000
   0.99999866  0.66666501  0.46080136
   0.22222186  0.77777814  0.30993973
   0.11111000  0.88889000  0.15999000
   0.33333344  0.66666656  0.46080090
   0.55555037  0.77777505  0.30993885
   0.44444000  0.88889000  0.15999000
   0.66666223  0.66666248  0.46080150
   0.88888894  0.77777690  0.30993901
   0.77778000  0.88889000  0.15999000
   0.00000000  0.00000000  0.12250000
   0.00000015  0.99999985  0.57293411
   0.11111088  0.22222176  0.27269361
   0.22222085  0.11111154  0.42222679
   0.11111000  0.22222000  0.04751000
   0.11111112  0.22222148  0.49907460
   0.00000002  0.99999998  0.34730140
   0.22222000  0.11111000  0.19748000
   0.33333000  0.00000000  0.12250000
   0.33333029  0.00000019  0.57293352
   0.44444715  0.22222153  0.27269347
   0.55555636  0.11111087  0.42222642
   0.44444000  0.22222000  0.04751000
   0.44444453  0.22222105  0.49907346
   0.33333547  0.00000232  0.34730195
   0.55556000  0.11111000  0.19748000
   0.66667000  0.00000000  0.12250000
   0.66666990  0.99999986  0.57293378
   0.77777909  0.22222091  0.27269423
   0.88888922  0.11111078  0.42222671
   0.77778000  0.22222000  0.04751000
   0.77777943  0.22222057  0.49907482
   0.66666646  0.99999859  0.34730039
   0.88889000  0.11111000  0.19748000
   0.00000000  0.33333000  0.12250000
   0.00000014  0.33333010  0.57293378
   0.11111025  0.55555371  0.27269286
   0.22222072  0.44444439  0.42222650
   0.11111000  0.55556000  0.04751000
   0.11111063  0.55555639  0.49907329
   0.00000141  0.33333354  0.34730039
   0.22222000  0.44444000  0.19748000
   0.33333000  0.33333000  0.12250000
   0.33333029  0.33333038  0.57293320
   0.44444652  0.55555348  0.27269273
   0.55555626  0.44444374  0.42222611
   0.44444000  0.55556000  0.04751000
   0.44444405  0.55555595  0.49907207
   0.33333687  0.33333588  0.34730094
   0.55556000  0.44444000  0.19748000
   0.66667000  0.33333000  0.12250000
   0.66666991  0.33333009  0.57293349
   0.77777847  0.55555285  0.27269347
   0.88888913  0.44444364  0.42222642
   0.77778000  0.55556000  0.04751000
   0.77777895  0.55555547  0.49907346
   0.66666786  0.33333214  0.34729938
   0.88889000  0.44444000  0.19748000
   0.00000000  0.66667000  0.12250000
   0.99999981  0.66666971  0.57293352
   0.11111003  0.88888997  0.27269298
   0.22222011  0.77777989  0.42222689
   0.11111000  0.88889000  0.04751000
   0.11111020  0.88888980  0.49907441
   0.99999768  0.66666453  0.34730195
   0.22222000  0.77778000  0.19748000
   0.33333000  0.66667000  0.12250000
   0.33332993  0.66667007  0.57293288
   0.44444629  0.88888975  0.27269286
   0.55555561  0.77777928  0.42222650
   0.44444000  0.88889000  0.04751000
   0.44444361  0.88888937  0.49907329
   0.33333313  0.66666687  0.34730251
   0.55556000  0.77778000  0.19748000
   0.66667000  0.66667000  0.12250000
   0.66666962  0.66666971  0.57293320
   0.77777824  0.88888912  0.27269361
   0.88888846  0.77777915  0.42222679
   0.77778000  0.88889000  0.04751000
   0.77777852  0.88888888  0.49907460
   0.66666412  0.66666313  0.34730094
   0.88889000  0.77778000  0.19748000
Direct configuration=     5
   0.99999978  0.00000022  0.46093071
   0.22222358  0.11111344  0.30987540
   0.11111000  0.22222000  0.15999000
   0.33333755  0.00000278  0.46093101
   0.55555570  0.11111343  0.30987438
   0.44444000  0.22222000  0.15999000
   0.66666300  0.99999798  0.46093015
   0.88888855  0.11111145  0.30987486
   0.77778000  0.22222000  0.15999000
   0.00000202  0.33333700  0.46093015
   0.22222161  0.44444634  0.30987487
   0.11111000  0.55556000  0.15999000
   0.33333982  0.33333964  0.46093051
   0.55555368  0.44444632  0.30987386
   0.44444000  0.55556000  0.15999000
   0.66666523  0.33333477  0.46092968
   0.88888657  0.44444430  0.30987438
   0.77778000  0.55556000  0.15999000
   0.99999722  0.66666245  0.46093101
   0.22222156  0.77777844  0.30987594
   0.11111000  0.88889000  0.15999000
   0.33333506  0.66666494  0.46093134
   0.55555366  0.77777839  0.30987487
   0.44444000  0.88889000  0.15999000
   0.66666036  0.66666018  0.46093051
   0.88888656  0.77777642  0.30987540
   0.77778000  0.88889000  0.15999000
   0.00000000  0.00000000  0.12250000
   0.00000024  0.99999976  0.57339559
   0.11111342  0.22222380  0.27275101
   0.22222246  0.11111295  0.42254299
   0.11111000  0.22222000  0.04751000
   0.11111281  0.22222342  0.50025102
   0.00000093  0.99999907  0.34746779
   0.22222000  0.11111000  0.19748000
   0.33333000  0.00000000  0.12250000
   0.33333023  0.00000023  0.57339455
   0.44444836  0.22222135  0.27275024
   0.55555380  0.11111114  0.42254311
   0.44444000  0.22222000  0.04751000
   0.44444710  0.22222219  0.50024908
   0.33333631  0.00000094  0.34746834
   0.55556000  0.11111000  0.19748000
   0.66667000  0.00000000  0.12250000
   0.66667018  0.99999994  0.57339509
   0.77777849  0.22222151  0.27275132
   0.88888872  0.11111128  0.42254356
   0.77778000  0.22222000  0.04751000
   0.77777866  0.22222134  0.50025144
   0.66666256  0.99999577  0.34746672
   0.88889000  0.11111000  0.19748000
   0.00000000  0.33333000  0.12250000
   0.00000006  0.33332982  0.57339509
   0.11111358  0.55555392  0.27274993
   0.22222254  0.44444785  0.42254252
   0.11111000  0.55556000  0.04751000
   0.11111194  0.55555499  0.50024872
   0.00000423  0.33333744  0.34746672
   0.22222000  0.44444000  0.19748000
   0.33333000  0.33333000  0.12250000
   0.33333004  0.33333020  0.57339405
   0.44444853  0.55555147  0.27274915
   0.55555393  0.44444607  0.42254263
   0.44444000  0.55556000  0.04751000
   0.44444625  0.55555375  0.50024665
   0.33333962  0.33333932  0.34746727
   0.55556000  0.44444000  0.19748000
   0.66667000  0.33333000  0.12250000
   0.66667003  0.33332997  0.57339464
   0.77777865  0.55555164  0.27275024
   0.88888886  0.44444620  0.42254311
   0.77778000  0.55556000  0.04751000
   0.77777781  0.55555290  0.50024908
   0.66666585  0.33333415  0.34746566
   0.88889000  0.44444000  0.19748000
   0.00000000  0.66667000  0.12250000
   0.99999977  0.66666977  0.57339455
   0.11111113  0.88888887  0.27275070
   0.22222081  0.77777919  0.42254244
   0.11111000  0.88889000  0.04751000
   0.11111070  0.88888930  0.50025064
   0.99999906  0.66666369  0.34746834
   0.22222000  0.77778000  0.19748000
   0.33333000  0.66667000  0.12250000
   0.33332971  0.66667029  0.57339342
   0.44444608  0.88888642  0.27274993
   0.55555215  0.77777746  0.42254252
   0.44444000  0.88889000  0.04751000
   0.44444501  0.88888806  0.50024872
   0.33333446  0.66666554  0.34746888
   0.55556000  0.77778000  0.19748000
   0.66667000  0.66667000  0.12250000
   0.66666980  0.66666996  0.57339405
   0.77777620  0.88888658  0.27275101
   0.88888705  0.77777754  0.42254299
   0.77778000  0.88889000  0.04751000
   0.77777658  0.88888719  0.50025102
   0.66666068  0.66666038  0.34746727
   0.88889000  0.77778000  0.19748000
Direct configuration=     6
   0.99999968  0.00000032  0.46095720
   0.22222367  0.11111393  0.30986233
   0.11111000  0.22222000  0.15999000
   0.33333808  0.00000308  0.46095766
   0.55555654  0.11111453  0.30986127
   0.44444000  0.22222000  0.15999000
   0.66666282  0.99999814  0.46095650
   0.88888822  0.11111178  0.30986182
   0.77778000  0.22222000  0.15999000
   0.00000186  0.33333718  0.46095650
   0.22222092  0.44444566  0.30986172
   0.11111000  0.55556000  0.15999000
   0.33334029  0.33334002  0.46095702
   0.55555374  0.44444626  0.30986067
   0.44444000  0.55556000  0.15999000
   0.66666499  0.33333501  0.46095591
   0.88888547  0.44444346  0.30986127
   0.77778000  0.55556000  0.15999000
   0.99999692  0.66666192  0.46095766
   0.22222150  0.77777850  0.30986283
   0.11111000  0.88889000  0.15999000
   0.33333539  0.66666461  0.46095814
   0.55555434  0.77777908  0.30986172
   0.44444000  0.88889000  0.15999000
   0.66665998  0.66665971  0.46095702
   0.88888607  0.77777633  0.30986233
   0.77778000  0.88889000  0.15999000
   0.00000000  0.00000000  0.12250000
   0.00000026  0.99999974  0.57349043
   0.11111394  0.22222421  0.27276281
   0.22222279  0.11111324  0.42260797
   0.11111000  0.22222000  0.04751000
   0.11111315  0.22222382  0.50049279
   0.00000112  0.99999888  0.34750199
   0.22222000  0.11111000  0.19748000
   0.33333000  0.00000000  0.12250000
   0.33333021  0.00000024  0.57348929
   0.44444861  0.22222132  0.27276190
   0.55555328  0.11111120  0.42260820
   0.44444000  0.22222000  0.04751000
   0.44444762  0.22222242  0.50049068
   0.33333649  0.00000065  0.34750254
   0.55556000  0.11111000  0.19748000
   0.66667000  0.00000000  0.12250000
   0.66667023  0.99999996  0.57348990
   0.77777836  0.22222164  0.27276305
   0.88888862  0.11111138  0.42260868
   0.77778000  0.22222000  0.04751000
   0.77777850  0.22222150  0.50049326
   0.66666176  0.99999519  0.34750090
   0.88889000  0.11111000  0.19748000
   0.00000000  0.33333000  0.12250000
   0.00000004  0.33332977  0.57348990
   0.11111426  0.55555396  0.27276166
   0.22222291  0.44444856  0.42260747
   0.11111000  0.55556000  0.04751000
   0.11111221  0.55555471  0.50049029
   0.00000481  0.33333824  0.34750090
   0.22222000  0.44444000  0.19748000
   0.33333000  0.33333000  0.12250000
   0.33332999  0.33333016  0.57348876
   0.44444894  0.55555106  0.27276075
   0.55555345  0.44444655  0.42260767
   0.44444000  0.55556000  0.04751000
   0.44444671  0.55555329  0.50048805
   0.33334018  0.33334003  0.34750145
   0.55556000  0.44444000  0.19748000
   0.66667000  0.33333000  0.12250000
   0.66667005  0.33332995  0.57348941
   0.77777868  0.55555139  0.27276190
   0.88888880  0.44444672  0.42260820
   0.77778000  0.55556000  0.04751000
   0.77777758  0.55555238  0.50049068
   0.66666544  0.33333456  0.34749984
   0.88889000  0.44444000  0.19748000
   0.00000000  0.66667000  0.12250000
   0.99999976  0.66666979  0.57348929
   0.11111136  0.88888864  0.27276256
   0.22222095  0.77777905  0.42260729
   0.11111000  0.88889000  0.04751000
   0.11111080  0.88888920  0.50049237
   0.99999935  0.66666351  0.34750254
   0.22222000  0.77778000  0.19748000
   0.33333000  0.66667000  0.12250000
   0.33332967  0.66667033  0.57348806
   0.44444604  0.88888574  0.27276166
   0.55555144  0.77777709  0.42260747
   0.44444000  0.88889000  0.04751000
   0.44444529  0.88888779  0.50049029
   0.33333473  0.66666527  0.34750308
   0.55556000  0.77778000  0.19748000
   0.66667000  0.66667000  0.12250000
   0.66666984  0.66667001  0.57348876
   0.77777579  0.88888606  0.27276281
   0.88888676  0.77777721  0.42260797
   0.77778000  0.88889000  0.04751000
   0.77777618  0.88888685  0.50049279
   0.66665997  0.66665982  0.34750145
   0.88889000  0.77778000  0.19748000
Direct configuration=     7
   0.99999971  0.00000029  0.46123530
   0.22222370  0.11111387  0.31003882
   0.11111000  0.22222000  0.15999000
   0.33333693  0.00000221  0.46123538
   0.55555736  0.11111472  0.31003732
   0.44444000  0.22222000  0.15999000
   0.66666347  0.99999860  0.46123454
   0.88888812  0.11111188  0.31003838
   0.77778000  0.22222000  0.15999000
   0.00000140  0.33333653  0.46123454
   0.22222086  0.44444467  0.31003773
   0.11111000  0.55556000  0.15999000
   0.33333865  0.33333851  0.46123466
   0.55555450  0.44444550  0.31003624
   0.44444000  0.55556000  0.15999000
   0.66666517  0.33333483  0.46123388
   0.88888528  0.44444264  0.31003732
   0.77778000  0.55556000  0.15999000
   0.99999779  0.66666307  0.46123538
   0.22222169  0.77777831  0.31003925
   0.11111000  0.88889000  0.15999000
   0.33333507  0.66666493  0.46123547
   0.55555533  0.77777914  0.31003773
   0.44444000  0.88889000  0.15999000
   0.66666149  0.66666135  0.46123466
   0.88888613  0.77777630  0.31003882
   0.77778000  0.88889000  0.15999000
   0.00000000  0.00000000  0.12250000
   0.00000034  0.99999966  0.57365510
   0.11111395  0.22222397  0.27269474
   0.22222354  0.11111387  0.42290856
   0.11111000  0.22222000  0.04751000
   0.11111381  0.22222489  0.50085162
   0.00000100  0.99999900  0.34762754
   0.22222000  0.11111000  0.19748000
   0.33333000  0.00000000  0.12250000
   0.33332991  0.00000013  0.57365418
   0.44444704  0.22222052  0.27269321
   0.55555378  0.11111195  0.42290892
   0.44444000  0.22222000  0.04751000
   0.44444847  0.22222335  0.50084938
   0.33333632  0.00000039  0.34762787
   0.55556000  0.11111000  0.19748000
   0.66667000  0.00000000  0.12250000
   0.66667059  0.00000006  0.57365447
   0.77777840  0.22222160  0.27269485
   0.88888830  0.11111170  0.42290917
   0.77778000  0.22222000  0.04751000
   0.77777791  0.22222209  0.50085193
   0.66666187  0.99999582  0.34762687
   0.88889000  0.11111000  0.19748000
   0.00000000  0.33333000  0.12250000
   0.99999994  0.33332941  0.57365447
   0.11111503  0.55555531  0.27269310
   0.22222322  0.44444836  0.42290828
   0.11111000  0.55556000  0.04751000
   0.11111253  0.55555434  0.50084914
   0.00000418  0.33333813  0.34762687
   0.22222000  0.44444000  0.19748000
   0.33333000  0.33333000  0.12250000
   0.33332951  0.33332974  0.57365356
   0.44444813  0.55555187  0.27269157
   0.55555353  0.44444647  0.42290863
   0.44444000  0.55556000  0.04751000
   0.44444723  0.55555277  0.50084676
   0.33333950  0.33333955  0.34762719
   0.55556000  0.44444000  0.19748000
   0.66667000  0.33333000  0.12250000
   0.66667025  0.33332975  0.57365390
   0.77777948  0.55555296  0.27269321
   0.88888805  0.44444622  0.42290892
   0.77778000  0.55556000  0.04751000
   0.77777665  0.55555153  0.50084938
   0.66666504  0.33333496  0.34762623
   0.88889000  0.44444000  0.19748000
   0.00000000  0.66667000  0.12250000
   0.99999987  0.66667009  0.57365418
   0.11111159  0.88888841  0.27269463
   0.22222139  0.77777861  0.42290796
   0.11111000  0.88889000  0.04751000
   0.11111097  0.88888903  0.50085135
   0.99999961  0.66666368  0.34762787
   0.22222000  0.77778000  0.19748000
   0.33333000  0.66667000  0.12250000
   0.33332939  0.66667061  0.57365317
   0.44444469  0.88888497  0.27269310
   0.55555164  0.77777678  0.42290828
   0.44444000  0.88889000  0.04751000
   0.44444566  0.88888747  0.50084914
   0.33333494  0.66666506  0.34762817
   0.55556000  0.77778000  0.19748000
   0.66667000  0.66667000  0.12250000
   0.66667026  0.66667049  0.57365356
   0.77777603  0.88888605  0.27269474
   0.88888613  0.77777646  0.42290856
   0.77778000  0.88889000  0.04751000
   0.77777511  0.88888619  0.50085162
   0.66666045  0.66666050  0.34762719
   0.88889000  0.77778000  0.19748000
Direct configuration=     8
   0.99999980  0.00000020  0.46206959
   0.22222376  0.11111371  0.31056828
   0.11111000  0.22222000  0.15999000
   0.33333347  0.99999962  0.46206854
   0.55555981  0.11111530  0.31056549
   0.44444000  0.22222000  0.15999000
   0.66666544  0.99999996  0.46206866
   0.88888784  0.11111216  0.31056803
   0.77778000  0.22222000  0.15999000
   0.00000004  0.33333456  0.46206866
   0.22222068  0.44444167  0.31056575
   0.11111000  0.55556000  0.15999000
   0.33333374  0.33333396  0.46206759
   0.55555680  0.44444320  0.31056296
   0.44444000  0.55556000  0.15999000
   0.66666570  0.33333430  0.46206779
   0.88888470  0.44444019  0.31056549
   0.77778000  0.55556000  0.15999000
   0.00000038  0.66666653  0.46206854
   0.22222228  0.77777772  0.31056852
   0.11111000  0.88889000  0.15999000
   0.33333409  0.66666591  0.46206747
   0.55555833  0.77777932  0.31056575
   0.44444000  0.88889000  0.15999000
   0.66666604  0.66666626  0.46206759
   0.88888629  0.77777624  0.31056828
   0.77778000  0.88889000  0.15999000
   0.00000000  0.00000000  0.12250000
   0.00000055  0.99999945  0.57414909
   0.11111397  0.22222322  0.27249052
   0.22222579  0.11111573  0.42381031
   0.11111000  0.22222000  0.04751000
   0.11111576  0.22222811  0.50192811
   0.00000064  0.99999936  0.34800420
   0.22222000  0.11111000  0.19748000
   0.33333000  0.00000000  0.12250000
   0.33332900  0.99999980  0.57414882
   0.44444234  0.22221812  0.27248715
   0.55555530  0.11111419  0.42381109
   0.44444000  0.22222000  0.04751000
   0.44445101  0.22222614  0.50192547
   0.33333581  0.99999960  0.34800385
   0.55556000  0.11111000  0.19748000
   0.66667000  0.00000000  0.12250000
   0.66667167  0.00000036  0.57414818
   0.77777850  0.22222150  0.27249025
   0.88888735  0.11111265  0.42381066
   0.77778000  0.22222000  0.04751000
   0.77777613  0.22222387  0.50192797
   0.66666220  0.99999772  0.34800478
   0.88889000  0.11111000  0.19748000
   0.00000000  0.33333000  0.12250000
   0.99999964  0.33332833  0.57414818
   0.11111736  0.55555937  0.27248744
   0.22222414  0.44444775  0.42381070
   0.11111000  0.55556000  0.04751000
   0.11111348  0.55555322  0.50192568
   0.00000228  0.33333780  0.34800478
   0.22222000  0.44444000  0.19748000
   0.33333000  0.33333000  0.12250000
   0.33332808  0.33332847  0.57414796
   0.44444572  0.55555428  0.27248402
   0.55555375  0.44444625  0.42381148
   0.44444000  0.55556000  0.04751000
   0.44444878  0.55555122  0.50192288
   0.33333745  0.33333811  0.34800442
   0.55556000  0.44444000  0.19748000
   0.66667000  0.33333000  0.12250000
   0.66667084  0.33332916  0.57414737
   0.77778188  0.55555766  0.27248715
   0.88888581  0.44444470  0.42381109
   0.77778000  0.55556000  0.04751000
   0.77777386  0.55554899  0.50192547
   0.66666384  0.33333616  0.34800541
   0.88889000  0.44444000  0.19748000
   0.00000000  0.66667000  0.12250000
   0.00000020  0.66667100  0.57414882
   0.11111227  0.88888773  0.27249083
   0.22222270  0.77777730  0.42380997
   0.11111000  0.88889000  0.04751000
   0.11111149  0.88888851  0.50192828
   0.00000040  0.66666419  0.34800385
   0.22222000  0.77778000  0.19748000
   0.33333000  0.66667000  0.12250000
   0.33332857  0.66667143  0.57414849