  73  73   0   0
  0.3358953E+02  0.1159820E-08  0.1159820E-08  0.2104820E-08  0.5000000E-15
  1.000000000000000E-004
  CAR 
 unknown system                          
      2.41960961    -37.84573081  301     -0.51850195      1.00000000
    -37.846  0.0000E+00  0.0000E+00  0.0000E+00  0.0000E+00
    -37.712  0.0000E+00  0.0000E+00  0.0000E+00  0.0000E+00
    -37.577  0.0000E+00  0.0000E+00  0.0000E+00  0.0000E+00
    -37.443  0.0000E+00  0.0000E+00  0.0000E+00  0.0000E+00
    -37.309  0.0000E+00  0.0000E+00  0.0000E+00  0.0000E+00
    -37.175  0.0000E+00  0.0000E+00  0.0000E+00  0.0000E+00
    -37.040  0.0000E+00  0.0000E+00  0.0000E+00  0.0000E+00
    -36.906  0.0000E+00  0.0000E+00  0.0000E+00  0.0000E+00
    -36.772  0.0000E+00  0.0000E+00  0.0000E+00  0.0000E+00
    -36.638  0.0000E+00  0.0000E+00  0.0000E+00  0.0000E+00
    -36.504  0.0000E+00  0.0000E+00  0.0000E+00  0.0000E+00
    -36.369  0.0000E+00  0.0000E+00  0.0000E+00  0.0000E+00
    -36.235  0.6494E-11  0.5125E-12  0.8716E-12  0.6879E-13
    -36.101  0.1955E-03  0.6314E-04  0.2624E-04  0.8474E-05
    -35.967  0.3675E-01  0.3038E-01  0.4958E-02  0.4085E-02
    -35.832  0.1164E+00  0.1178E+00  0.2058E-01  0.1990E-01
    -35.698  0.1673E+00  0.1733E+00  0.4303E-01  0.4315E-01
    -35.564  0.1014E+00  0.1005E+00  0.5664E-01  0.5664E-01
    -35.430  0.2055E-03  0.2238E-03  0.5667E-01  0.5667E-01
    -35.296  0.3783E-11  0.4628E-11  0.5667E-01  0.5667E-01
    -35.161  0.0000E+00  0.0000E+00  0.5667E-01  0.5667E-01
    -35.027  0.0000E+00  0.0000E+00  0.5667E-01  0.5667E-01
    -34.893  0.0000E+00  0.0000E+00  0.5667E-01  0.5667E-01
    -34.759  0.0000E+00  0.0000E+00  0.5667E-01  0.5667E-01
    -34.625  0.0000E+00  0.0000E+00  0.5667E-01  0.5667E-01
    -34.490  0.0000E+00  0.0000E+00  0.5667E-01  0.5667E-01
    -34.356  0.0000E+00  0.0000E+00  0.5667E-01  0.5667E-01
    -34.222  0.0000E+00  0.0000E+00  0.5667E-01  0.5667E-01
    -34.088  0.1988E-09  0.0000E+00  0.5667E-01  0.5667E-01
    -33.953  0.7912E-03  0.0000E+00  0.5677E-01  0.5667E-01
    -33.819  0.2340E-01  0.0000E+00  0.5991E-01  0.5667E-01
    -33.685  0.6472E-03  0.9464E-13  0.6000E-01  0.5667E-01
    -33.551  0.1187E-09  0.2849E-04  0.6000E-01  0.5667E-01
    -33.417  0.0000E+00  0.1916E-01  0.6000E-01  0.5924E-01
    -33.282  0.0000E+00  0.5651E-02  0.6000E-01  0.6000E-01
    -33.148  0.0000E+00  0.6878E-07  0.6000E-01  0.6000E-01
    -33.014  0.0000E+00  0.0000E+00  0.6000E-01  0.6000E-01
    -32.880  0.0000E+00  0.0000E+00  0.6000E-01  0.6000E-01
    -32.745  0.0000E+00  0.0000E+00  0.6000E-01  0.6000E-01
    -32.611  0.0000E+00  0.0000E+00  0.6000E-01  0.6000E-01
    -32.477  0.0000E+00  0.0000E+00  0.6000E-01  0.6000E-01
    -32.343  0.0000E+00  0.0000E+00  0.6000E-01  0.6000E-01
    -32.209  0.0000E+00  0.0000E+00  0.6000E-01  0.6000E-01
    -32.074  0.0000E+00  0.0000E+00  0.6000E-01  0.6000E-01
    -31.940  0.0000E+00  0.0000E+00  0.6000E-01  0.6000E-01
    -31.806  0.0000E+00  0.0000E+00  0.6000E-01  0.6000E-01
    -31.672  0.0000E+00  0.0000E+00  0.6000E-01  0.6000E-01
    -31.537  0.0000E+00  0.0000E+00  0.6000E-01  0.6000E-01
    -31.403  0.0000E+00  0.0000E+00  0.6000E-01  0.6000E-01
    -31.269  0.0000E+00  0.0000E+00  0.6000E-01  0.6000E-01
    -31.135  0.0000E+00  0.0000E+00  0.6000E-01  0.6000E-01
    -31.001  0.0000E+00  0.0000E+00  0.6000E-01  0.6000E-01
    -30.866  0.0000E+00  0.0000E+00  0.6000E-01  0.6000E-01
    -30.732  0.0000E+00  0.0000E+00  0.6000E-01  0.6000E-01
    -30.598  0.0000E+00  0.0000E+00  0.6000E-01  0.6000E-01
    -30.464  0.0000E+00  0.0000E+00  0.6000E-01  0.6000E-01
    -30.330  0.0000E+00  0.0000E+00  0.6000E-01  0.6000E-01
    -30.195  0.0000E+00  0.0000E+00  0.6000E-01  0.6000E-01
    -30.061  0.0000E+00  0.0000E+00  0.6000E-01  0.6000E-01
    -29.927  0.0000E+00  0.0000E+00  0.6000E-01  0.6000E-01
    -29.793  0.0000E+00  0.0000E+00  0.6000E-01  0.6000E-01
    -29.658  0.0000E+00  0.0000E+00  0.6000E-01  0.6000E-01
    -29.524  0.0000E+00  0.0000E+00  0.6000E-01  0.6000E-01
    -29.390  0.0000E+00  0.0000E+00  0.6000E-01  0.6000E-01
    -29.256  0.0000E+00  0.0000E+00  0.6000E-01  0.6000E-01
    -29.122  0.0000E+00  0.0000E+00  0.6000E-01  0.6000E-01
    -28.987  0.0000E+00  0.0000E+00  0.6000E-01  0.6000E-01
    -28.853  0.0000E+00  0.0000E+00  0.6000E-01  0.6000E-01
    -28.719  0.0000E+00  0.0000E+00  0.6000E-01  0.6000E-01
    -28.585  0.0000E+00  0.0000E+00  0.6000E-01  0.6000E-01
    -28.450  0.0000E+00  0.0000E+00  0.6000E-01  0.6000E-01
    -28.316  0.0000E+00  0.0000E+00  0.6000E-01  0.6000E-01
    -28.182  0.0000E+00  0.0000E+00  0.6000E-01  0.6000E-01
    -28.048  0.0000E+00  0.0000E+00  0.6000E-01  0.6000E-01
    -27.914  0.0000E+00  0.0000E+00  0.6000E-01  0.6000E-01
    -27.779  0.0000E+00  0.0000E+00  0.6000E-01  0.6000E-01
    -27.645  0.0000E+00  0.0000E+00  0.6000E-01  0.6000E-01
    -27.511  0.0000E+00  0.0000E+00  0.6000E-01  0.6000E-01
    -27.377  0.0000E+00  0.0000E+00  0.6000E-01  0.6000E-01
    -27.243  0.0000E+00  0.0000E+00  0.6000E-01  0.6000E-01
    -27.108  0.0000E+00  0.0000E+00  0.6000E-01  0.6000E-01
    -26.974  0.0000E+00  0.0000E+00  0.6000E-01  0.6000E-01
    -26.840  0.0000E+00  0.0000E+00  0.6000E-01  0.6000E-01
    -26.706  0.0000E+00  0.0000E+00  0.6000E-01  0.6000E-01
    -26.571  0.0000E+00  0.0000E+00  0.6000E-01  0.6000E-01
    -26.437  0.0000E+00  0.0000E+00  0.6000E-01  0.6000E-01
    -26.303  0.0000E+00  0.0000E+00  0.6000E-01  0.6000E-01
    -26.169  0.0000E+00  0.0000E+00  0.6000E-01  0.6000E-01
    -26.035  0.0000E+00  0.0000E+00  0.6000E-01  0.6000E-01
    -25.900  0.0000E+00  0.0000E+00  0.6000E-01  0.6000E-01
    -25.766  0.0000E+00  0.0000E+00  0.6000E-01  0.6000E-01
    -25.632  0.0000E+00  0.0000E+00  0.6000E-01  0.6000E-01
    -25.498  0.0000E+00  0.0000E+00  0.6000E-01  0.6000E-01
    -25.363  0.0000E+00  0.0000E+00  0.6000E-01  0.6000E-01
    -25.229  0.0000E+00  0.0000E+00  0.6000E-01  0.6000E-01
    -25.095  0.0000E+00  0.0000E+00  0.6000E-01  0.6000E-01
    -24.961  0.0000E+00  0.0000E+00  0.6000E-01  0.6000E-01
    -24.827  0.0000E+00  0.0000E+00  0.6000E-01  0.6000E-01
    -24.692  0.0000E+00  0.0000E+00  0.6000E-01  0.6000E-01
    -24.558  0.0000E+00  0.0000E+00  0.6000E-01  0.6000E-01
    -24.424  0.0000E+00  0.0000E+00  0.6000E-01  0.6000E-01
    -24.290  0.0000E+00  0.0000E+00  0.6000E-01  0.6000E-01
    -24.156  0.0000E+00  0.0000E+00  0.6000E-01  0.6000E-01
    -24.021  0.0000E+00  0.0000E+00  0.6000E-01  0.6000E-01
    -23.887  0.0000E+00  0.0000E+00  0.6000E-01  0.6000E-01
    -23.753  0.0000E+00  0.0000E+00  0.6000E-01  0.6000E-01
    -23.619  0.0000E+00  0.0000E+00  0.6000E-01  0.6000E-01
    -23.484  0.0000E+00  0.0000E+00  0.6000E-01  0.6000E-01
    -23.350  0.0000E+00  0.0000E+00  0.6000E-01  0.6000E-01
    -23.216  0.0000E+00  0.0000E+00  0.6000E-01  0.6000E-01
    -23.082  0.0000E+00  0.0000E+00  0.6000E-01  0.6000E-01
    -22.948  0.0000E+00  0.0000E+00  0.6000E-01  0.6000E-01
    -22.813  0.0000E+00  0.0000E+00  0.6000E-01  0.6000E-01
    -22.679  0.0000E+00  0.0000E+00  0.6000E-01  0.6000E-01
    -22.545  0.0000E+00  0.0000E+00  0.6000E-01  0.6000E-01
    -22.411  0.0000E+00  0.0000E+00  0.6000E-01  0.6000E-01
    -22.276  0.0000E+00  0.0000E+00  0.6000E-01  0.6000E-01
    -22.142  0.0000E+00  0.0000E+00  0.6000E-01  0.6000E-01
    -22.008  0.0000E+00  0.0000E+00  0.6000E-01  0.6000E-01
    -21.874  0.0000E+00  0.0000E+00  0.6000E-01  0.6000E-01
    -21.740  0.0000E+00  0.0000E+00  0.6000E-01  0.6000E-01
    -21.605  0.0000E+00  0.0000E+00  0.6000E-01  0.6000E-01
    -21.471  0.1103E-15  0.8272E-17  0.6000E-01  0.6000E-01
    -21.337  0.9379E-06  0.2362E-06  0.6000E-01  0.6000E-01
    -21.203  0.1082E-01  0.7840E-02  0.6145E-01  0.6105E-01
    -21.069  0.1402E-01  0.1699E-01  0.6333E-01  0.6333E-01
    -20.934  0.1770E-01  0.1469E-01  0.6571E-01  0.6530E-01
    -20.800  0.7736E-01  0.7634E-01  0.7609E-01  0.7555E-01
    -20.666  0.6172E-01  0.6366E-01  0.8438E-01  0.8410E-01
    -20.532  0.1048E+00  0.1071E+00  0.9845E-01  0.9847E-01
    -20.397  0.7970E-01  0.7615E-01  0.1091E+00  0.1087E+00
    -20.263  0.8374E-01  0.8540E-01  0.1204E+00  0.1202E+00
    -20.129  0.4155E-01  0.3338E-01  0.1260E+00  0.1246E+00
    -19.995  0.2551E-01  0.4288E-01  0.1294E+00  0.1304E+00
    -19.861  0.4889E-01  0.3779E-01  0.1359E+00  0.1355E+00
    -19.726  0.9524E-01  0.9241E-01  0.1487E+00  0.1479E+00
    -19.592  0.5193E-01  0.4746E-01  0.1557E+00  0.1542E+00
    -19.458  0.3388E-01  0.6396E-01  0.1602E+00  0.1628E+00
    -19.324  0.4586E-01  0.3032E-01  0.1664E+00  0.1669E+00
    -19.189  0.3008E-01  0.3844E-01  0.1704E+00  0.1721E+00
    -19.055  0.7063E-01  0.1897E-01  0.1799E+00  0.1746E+00
    -18.921  0.5349E-01  0.1859E-01  0.1871E+00  0.1771E+00
    -18.787  0.2159E-01  0.3467E-01  0.1900E+00  0.1817E+00
    -18.653  0.2104E-01  0.2640E-01  0.1928E+00  0.1853E+00
    -18.518  0.1479E-01  0.4221E-01  0.1948E+00  0.1910E+00
    -18.384  0.1117E+00  0.1033E+00  0.2098E+00  0.2048E+00
    -18.250  0.1713E+00  0.1799E+00  0.2328E+00  0.2290E+00
    -18.116  0.1390E+00  0.1424E+00  0.2514E+00  0.2481E+00
    -17.981  0.1873E+00  0.1864E+00  0.2766E+00  0.2731E+00
    -17.847  0.9916E-01  0.1011E+00  0.2899E+00  0.2867E+00
    -17.713  0.4464E-01  0.5514E-01  0.2959E+00  0.2941E+00
    -17.579  0.2093E-01  0.1980E-01  0.2987E+00  0.2967E+00
    -17.445  0.4025E-01  0.3098E-01  0.3041E+00  0.3009E+00
    -17.310  0.1911E-01  0.2852E-01  0.3067E+00  0.3047E+00
    -17.176  0.5100E-03  0.1467E-01  0.3067E+00  0.3067E+00
    -17.042  0.2430E-01  0.2324E-01  0.3100E+00  0.3098E+00
    -16.908  0.5052E-01  0.4827E-01  0.3168E+00  0.3163E+00
    -16.774  0.3011E-01  0.3030E-01  0.3208E+00  0.3204E+00
    -16.639  0.4393E-01  0.4453E-01  0.3267E+00  0.3263E+00
    -16.505  0.2696E-01  0.1969E-01  0.3303E+00  0.3290E+00
    -16.371  0.2226E-01  0.1451E-01  0.3333E+00  0.3309E+00
    -16.237  0.2036E-03  0.1794E-01  0.3333E+00  0.3333E+00
    -16.102  0.2134E-01  0.1461E-01  0.3362E+00  0.3353E+00
    -15.968  0.4895E-01  0.4754E-01  0.3428E+00  0.3417E+00
    -15.834  0.7836E-01  0.8004E-01  0.3533E+00  0.3524E+00
    -15.700  0.5291E-01  0.5553E-01  0.3604E+00  0.3599E+00
    -15.566  0.7374E-01  0.5154E-01  0.3703E+00  0.3668E+00
    -15.431  0.5915E-01  0.6130E-01  0.3782E+00  0.3750E+00
    -15.297  0.2160E-01  0.4457E-01  0.3811E+00  0.3810E+00
    -15.163  0.9883E-01  0.7862E-01  0.3944E+00  0.3915E+00
    -15.029  0.4067E-01  0.4611E-01  0.3999E+00  0.3977E+00
    -14.894  0.1072E-02  0.1685E-01  0.4000E+00  0.4000E+00
    -14.760  0.4400E-09  0.9290E-05  0.4000E+00  0.4000E+00
    -14.626  0.0000E+00  0.9479E-14  0.4000E+00  0.4000E+00
    -14.492  0.0000E+00  0.0000E+00  0.4000E+00  0.4000E+00
    -14.358  0.0000E+00  0.0000E+00  0.4000E+00  0.4000E+00
    -14.223  0.0000E+00  0.0000E+00  0.4000E+00  0.4000E+00
    -14.089  0.0000E+00  0.0000E+00  0.4000E+00  0.4000E+00
    -13.955  0.0000E+00  0.0000E+00  0.4000E+00  0.4000E+00
    -13.821  0.0000E+00  0.0000E+00  0.4000E+00  0.4000E+00
    -13.687  0.0000E+00  0.0000E+00  0.4000E+00  0.4000E+00
    -13.552  0.0000E+00  0.0000E+00  0.4000E+00  0.4000E+00
    -13.418  0.0000E+00  0.0000E+00  0.4000E+00  0.4000E+00
    -13.284  0.0000E+00  0.0000E+00  0.4000E+00  0.4000E+00
    -13.150  0.0000E+00  0.0000E+00  0.4000E+00  0.4000E+00
    -13.015  0.0000E+00  0.0000E+00  0.4000E+00  0.4000E+00
    -12.881  0.0000E+00  0.0000E+00  0.4000E+00  0.4000E+00
    -12.747  0.0000E+00  0.0000E+00  0.4000E+00  0.4000E+00
    -12.613  0.0000E+00  0.0000E+00  0.4000E+00  0.4000E+00
    -12.479  0.0000E+00  0.0000E+00  0.4000E+00  0.4000E+00
    -12.344  0.0000E+00  0.0000E+00  0.4000E+00  0.4000E+00
    -12.210  0.0000E+00  0.0000E+00  0.4000E+00  0.4000E+00
    -12.076  0.0000E+00  0.0000E+00  0.4000E+00  0.4000E+00
    -11.942  0.0000E+00  0.0000E+00  0.4000E+00  0.4000E+00
    -11.807  0.0000E+00  0.0000E+00  0.4000E+00  0.4000E+00
    -11.673  0.0000E+00  0.0000E+00  0.4000E+00  0.4000E+00
    -11.539  0.0000E+00  0.0000E+00  0.4000E+00  0.4000E+00
    -11.405  0.0000E+00  0.0000E+00  0.4000E+00  0.4000E+00
    -11.271  0.0000E+00  0.0000E+00  0.4000E+00  0.4000E+00
    -11.136  0.0000E+00  0.0000E+00  0.4000E+00  0.4000E+00
    -11.002  0.0000E+00  0.0000E+00  0.4000E+00  0.4000E+00
    -10.868  0.0000E+00  0.0000E+00  0.4000E+00  0.4000E+00
    -10.734  0.0000E+00  0.0000E+00  0.4000E+00  0.4000E+00
    -10.600  0.0000E+00  0.0000E+00  0.4000E+00  0.4000E+00
    -10.465  0.0000E+00  0.0000E+00  0.4000E+00  0.4000E+00
    -10.331  0.0000E+00  0.0000E+00  0.4000E+00  0.4000E+00
    -10.197  0.0000E+00  0.0000E+00  0.4000E+00  0.4000E+00
    -10.063  0.0000E+00  0.0000E+00  0.4000E+00  0.4000E+00
     -9.928  0.0000E+00  0.0000E+00  0.4000E+00  0.4000E+00
     -9.794  0.0000E+00  0.0000E+00  0.4000E+00  0.4000E+00
     -9.660  0.0000E+00  0.0000E+00  0.4000E+00  0.4000E+00
     -9.526  0.0000E+00  0.0000E+00  0.4000E+00  0.4000E+00
     -9.392  0.0000E+00  0.0000E+00  0.4000E+00  0.4000E+00
     -9.257  0.0000E+00  0.0000E+00  0.4000E+00  0.4000E+00
     -9.123  0.0000E+00  0.0000E+00  0.4000E+00  0.4000E+00
     -8.989  0.1714E-14  0.0000E+00  0.4000E+00  0.4000E+00
     -8.855  0.3921E-05  0.2592E-07  0.4000E+00  0.4000E+00
     -8.720  0.1433E-01  0.4258E-02  0.4019E+00  0.4006E+00
     -8.586  0.1112E-01  0.2307E-01  0.4034E+00  0.4037E+00
     -8.452  0.2422E-01  0.2220E-01  0.4067E+00  0.4066E+00
     -8.318  0.2627E-01  0.3798E-02  0.4102E+00  0.4072E+00
     -8.184  0.2321E-01  0.2619E-01  0.4133E+00  0.4107E+00
     -8.049  0.1996E-03  0.1978E-01  0.4133E+00  0.4133E+00
     -7.915  0.6860E-11  0.3674E-04  0.4133E+00  0.4133E+00
     -7.781  0.2786E-08  0.8040E-06  0.4133E+00  0.4133E+00
     -7.647  0.2075E-02  0.1046E-01  0.4136E+00  0.4147E+00
     -7.513  0.3241E-01  0.1437E-01  0.4180E+00  0.4167E+00
     -7.378  0.2739E-01  0.9688E-04  0.4216E+00  0.4167E+00
     -7.244  0.2197E-01  0.3420E-01  0.4246E+00  0.4213E+00
     -7.110  0.4083E-01  0.3913E-01  0.4301E+00  0.4265E+00
     -6.976  0.3231E-01  0.9485E-02  0.4344E+00  0.4278E+00
     -6.841  0.4531E-01  0.2584E-01  0.4405E+00  0.4313E+00
     -6.707  0.4795E-01  0.5855E-01  0.4469E+00  0.4391E+00
     -6.573  0.5748E-01  0.3645E-01  0.4546E+00  0.4440E+00
     -6.439  0.4205E-01  0.4643E-01  0.4603E+00  0.4502E+00
     -6.305  0.2339E-01  0.4789E-01  0.4634E+00  0.4567E+00
     -6.170  0.3349E-01  0.4299E-01  0.4679E+00  0.4624E+00
     -6.036  0.4771E-01  0.2344E-01  0.4743E+00  0.4656E+00
     -5.902  0.6116E-01  0.7549E-01  0.4825E+00  0.4757E+00
     -5.768  0.6036E-01  0.4256E-01  0.4906E+00  0.4814E+00
     -5.633  0.3090E-01  0.6729E-01  0.4948E+00  0.4905E+00
     -5.499  0.4595E-01  0.4150E-01  0.5009E+00  0.4960E+00
     -5.365  0.6256E-01  0.5785E-01  0.5093E+00  0.5038E+00
     -5.231  0.9035E-01  0.1047E+00  0.5215E+00  0.5179E+00
     -5.097  0.1192E+00  0.9057E-01  0.5375E+00  0.5300E+00
     -4.962  0.1242E+00  0.1273E+00  0.5541E+00  0.5471E+00
     -4.828  0.1201E+00  0.1327E+00  0.5703E+00  0.5649E+00
     -4.694  0.1483E+00  0.1086E+00  0.5902E+00  0.5795E+00
     -4.560  0.7983E-01  0.1273E+00  0.6009E+00  0.5966E+00
     -4.425  0.1124E+00  0.9666E-01  0.6160E+00  0.6096E+00
     -4.291  0.6993E-01  0.7785E-01  0.6254E+00  0.6200E+00
     -4.157  0.7297E-01  0.8847E-01  0.6352E+00  0.6319E+00
     -4.023  0.1489E+00  0.1295E+00  0.6551E+00  0.6493E+00
     -3.889  0.1739E+00  0.1671E+00  0.6785E+00  0.6717E+00
     -3.754  0.1348E+00  0.1266E+00  0.6966E+00  0.6887E+00
     -3.620  0.8557E-01  0.1244E+00  0.7081E+00  0.7054E+00
     -3.486  0.1206E+00  0.8998E-01  0.7242E+00  0.7175E+00
     -3.352  0.9298E-01  0.1053E+00  0.7367E+00  0.7316E+00
     -3.218  0.1279E+00  0.1169E+00  0.7539E+00  0.7473E+00
     -3.083  0.1182E+00  0.1339E+00  0.7698E+00  0.7653E+00
     -2.949  0.1443E+00  0.1433E+00  0.7891E+00  0.7845E+00
     -2.815  0.7675E-01  0.8035E-01  0.7994E+00  0.7953E+00
     -2.681  0.1760E+00  0.1916E+00  0.8231E+00  0.8210E+00
     -2.546  0.1696E+00  0.1851E+00  0.8458E+00  0.8458E+00
     -2.412  0.1338E+00  0.1239E+00  0.8638E+00  0.8625E+00
     -2.278  0.1484E+00  0.1340E+00  0.8837E+00  0.8805E+00
     -2.144  0.9601E-01  0.8549E-01  0.8966E+00  0.8919E+00
     -2.010  0.4483E-01  0.3503E-01  0.9026E+00  0.8966E+00
     -1.875  0.3182E-01  0.1392E-01  0.9069E+00  0.8985E+00
     -1.741  0.5267E-01  0.5560E-01  0.9139E+00  0.9060E+00
     -1.607  0.4890E-01  0.3909E-01  0.9205E+00  0.9112E+00
     -1.473  0.2110E-01  0.6317E-01  0.9233E+00  0.9197E+00
     -1.338  0.2294E-01  0.4675E-01  0.9264E+00  0.9260E+00
     -1.204  0.4603E-01  0.9971E-02  0.9326E+00  0.9273E+00
     -1.070  0.7245E-01  0.2004E-01  0.9423E+00  0.9300E+00
     -0.936  0.1876E-01  0.2141E-01  0.9448E+00  0.9329E+00
     -0.802  0.4337E-01  0.4835E-02  0.9507E+00  0.9335E+00
     -0.667  0.1989E-01  0.2306E-01  0.9533E+00  0.9366E+00
     -0.533  0.3767E-04  0.3197E-03  0.9533E+00  0.9367E+00
     -0.399  0.3533E-04  0.1444E-09  0.9533E+00  0.9367E+00
     -0.265  0.1963E-01  0.6583E-03  0.9560E+00  0.9368E+00
     -0.131  0.1357E-01  0.3531E-01  0.9578E+00  0.9415E+00
      0.004  0.9571E-01  0.7897E-01  0.9706E+00  0.9521E+00
      0.138  0.2224E+00  0.2043E+00  0.1000E+01  0.9795E+00
      0.272  0.5171E+00  0.5371E+00  0.1070E+01  0.1052E+01
      0.406  0.7733E+00  0.7845E+00  0.1174E+01  0.1157E+01
      0.541  0.6037E+00  0.6557E+00  0.1255E+01  0.1245E+01
      0.675  0.1882E+00  0.2609E+00  0.1280E+01  0.1280E+01
      0.809  0.1469E-03  0.6318E-03  0.1280E+01  0.1280E+01
      0.943  0.6032E-12  0.1277E-10  0.1280E+01  0.1280E+01
      1.077  0.0000E+00  0.0000E+00  0.1280E+01  0.1280E+01
      1.212  0.0000E+00  0.0000E+00  0.1280E+01  0.1280E+01
      1.346  0.0000E+00  0.0000E+00  0.1280E+01  0.1280E+01
      1.480  0.0000E+00  0.0000E+00  0.1280E+01  0.1280E+01
      1.614  0.0000E+00  0.0000E+00  0.1280E+01  0.1280E+01
      1.749  0.0000E+00  0.0000E+00  0.1280E+01  0.1280E+01
      1.883  0.0000E+00  0.0000E+00  0.1280E+01  0.1280E+01
      2.017  0.0000E+00  0.0000E+00  0.1280E+01  0.1280E+01
      2.151  0.0000E+00  0.0000E+00  0.1280E+01  0.1280E+01
      2.285  0.0000E+00  0.0000E+00  0.1280E+01  0.1280E+01
      2.420  0.0000E+00  0.0000E+00  0.1280E+01  0.1280E+01
