 vasp.6.4.3 19Mar24 (build Mar 01 2025 18:03:59) gamma-only                     
  
 executed on              Shaheen date 2025.04.25  16:42:47
 running  192 mpi-ranks, on    1 nodes
 distrk:  each k-point on  192 cores,    1 groups
 distr:  one band on NCORE=   4 cores,   48 groups


--------------------------------------------------------------------------------------------------------


 INCAR:
   ISTART = 1            (Read existing wavefunction, if there)
   LREAL = .FALSE.       (Projection operators: automatic)
   ENCUT = 520        (Cut-off energy for plane wave basis set, in eV)
   PREC = Accurate   (Precision level: Normal or Accurate, set Accurate when perform structure lattice relaxation calculation)
   LWAVE = .FALSE.        (Write WAVECAR or not)
   LCHARG = .FALSE.        (Write CHGCAR or not)
   ADDGRID = .TRUE.        (Increase grid, helps GGA convergence)
   LASPH = .TRUE.        (Give more accurate total energies and band structure calculations)
   PREC = Accurate      (Accurate strictly avoids any aliasing or wrap around errors)
   ISMEAR = 0            (Gaussian smearing, metals:1)
   SIGMA = 0.05         (Smearing value in eV, metals:0.2)
   NELM = 90           (Max electronic SCF steps)
   NELMIN = 6            (Min electronic SCF steps)
   EDIFF = 1E-06        (SCF energy convergence, in eV)
   NSW = 300          (Max ionic steps)
   IBRION = 2            (Algorithm: 0-MD, 1-Quasi-New, 2-CG)
   ISIF = 2            (Stress/relaxation: 2-Ions, 3-Shape/Ions/V, 4-Shape/Ions)
   EDIFFG = -2E-02        (Ionic convergence, eV/AA)
   NCORE = 4
   ISPIN = 2
   MAGMOM = 18*1.0 48*0.6 7*0.6
   LDAU = .TRUE.        (Activate DFT+U)
   LDAUTYPE = 2            (Dudarev, only U-J matters)
   LDAUL = 3 -1 2        (Orbitals for each species)
   LDAUU = 5.0  0 2.0         (U for each species)
   LDAUJ = 0  0  0       (J for each species)
   LMAXMIX = 6            (Mixing cut-off, 4-d, 6-f)

 POTCAR:    PAW_PBE Ce 23Dec2003                  
 POTCAR:    PAW_PBE O 08Apr2002                   
 POTCAR:    PAW_PBE Ir 06Sep2000                  
 -----------------------------------------------------------------------------
|                                                                             |
|           W    W    AA    RRRRR   N    N  II  N    N   GGGG   !!!           |
|           W    W   A  A   R    R  NN   N  II  NN   N  G    G  !!!           |
|           W    W  A    A  R    R  N N  N  II  N N  N  G       !!!           |
|           W WW W  AAAAAA  RRRRR   N  N N  II  N  N N  G  GGG   !            |
|           WW  WW  A    A  R   R   N   NN  II  N   NN  G    G                |
|           W    W  A    A  R    R  N    N  II  N    N   GGGG   !!!           |
|                                                                             |
|     For optimal performance we recommend to set                             |
|       NCORE = 2 up to number-of-cores-per-socket                            |
|     NCORE specifies how many cores store one orbital (NPAR=cpu/NCORE).      |
|     This setting can greatly improve the performance of VASP for DFT.       |
|     The default, NCORE=1 might be grossly inefficient on modern             |
|     multi-core architectures or massively parallel machines. Do your        |
|     own testing! More info at https://www.vasp.at/wiki/index.php/NCORE      |
|     Unfortunately you need to use the default for GW and RPA                |
|     calculations (for HF NCORE is supported but not extensively tested      |
|     yet).                                                                   |
|                                                                             |
 -----------------------------------------------------------------------------

 POTCAR:    PAW_PBE Ce 23Dec2003                  
   SHA256 =  00bd3101dba980d69718c826e9aff48526de61f93249f80fb0d1cde9afca69b7 Ce/POTCAR             
   COPYR  = (c) Copyright 23Dec2003 Georg Kresse                                                    
   COPYR  = This file is part of the software VASP. Any use, copying, and all other rights are regul
   COPYR  = If you do not have a valid VASP license, you may not use, copy or distribute this file. 
   VRHFIN =Ce : [core= Kr 4d10]                                                                     
   LEXCH  = PE                                                                                      
   EATOM  =  1063.0861 eV,   78.1346 Ry                                                             
                                                                                                    
   TITEL  = PAW_PBE Ce 23Dec2003                                                                    
   LULTRA =        F    use ultrasoft PP ?                                                          
   IUNSCR =        1    unscreen: 0-lin 1-nonlin 2-no                                               
   RPACOR =    1.800    partial core radius                                                         
   POMASS =  140.115; ZVAL   =   12.000    mass and valenz                                          
   RCORE  =    2.700    outmost cutoff radius                                                       
   RWIGS  =    2.500; RWIGS  =    1.323    wigner-seitz radius (au A)                               
   ENMAX  =  273.042; ENMIN  =  204.781 eV                                                          
   RCLOC  =    1.810    cutoff for local pot                                                        
   LCOR   =        T    correct aug charges                                                         
   LPAW   =        T    paw PP                                                                      
   EAUG   =  580.196                                                                                
   DEXC   =    0.000                                                                                
   RMAX   =    2.749    core radius for proj-oper                                                   
   RAUG   =    1.300    factor for augmentation sphere                                              
   RDEP   =    2.810    radius for radial grids                                                     
   RDEPT  =    2.162    core radius for aug-charge                                                  
                                                                                                    
   Atomic configuration                                                                             
   14 entries                                                                                       
     n  l   j            E        occ.                                                              
     1  0  0.50    -40258.9816   2.0000                                                             
     2  0  0.50     -6445.4884   2.0000                                                             
     2  1  1.50     -5771.7470   6.0000                                                             
     3  0  0.50     -1387.9739   2.0000                                                             
     3  1  1.50     -1173.8158   6.0000                                                             
     3  2  2.50      -869.9108  10.0000                                                             
     4  0  0.50      -280.8706   2.0000                                                             
     4  1  1.50      -210.9815   6.0000                                                             
     4  2  2.50      -110.4558  10.0000                                                             
     5  0  0.50       -40.5819   2.0000                                                             
     6  0  0.50        -3.7444   2.0000                                                             
     5  1  1.50       -23.2188   6.0000                                                             
     5  2  2.50        -3.0598   1.0000                                                             
     4  3  2.50        -5.3970   1.0000                                                             
   Description                                                                                      
     l       E           TYP  RCUT    TYP  RCUT                                                     
     0    -40.5819164     23  1.500                                                                 
     0     -3.7443793     23  2.300                                                                 
     1    -23.2188445     23  2.000                                                                 
     1     40.8174780     23  2.300                                                                 
     2     -3.0597556     23  2.500                                                                 
     2     13.6058260     23  2.500                                                                 
     3     -5.3970469     23  2.700                                                                 
     3     -5.8505052     23  2.700                                                                 
  local pseudopotential read in
  partial core-charges read in
  partial kinetic energy density read in
  atomic valenz-charges read in
  non local Contribution for L=           0  read in
    real space projection operators read in
  non local Contribution for L=           0  read in
    real space projection operators read in
  non local Contribution for L=           1  read in
    real space projection operators read in
  non local Contribution for L=           1  read in
    real space projection operators read in
  non local Contribution for L=           2  read in
    real space projection operators read in
  non local Contribution for L=           2  read in
    real space projection operators read in
  non local Contribution for L=           3  read in
    real space projection operators read in
  non local Contribution for L=           3  read in
    real space projection operators read in
    PAW grid and wavefunctions read in
 
   number of l-projection  operators is LMAX  =           8
   number of lm-projection operators is LMMAX =          32
 
 POTCAR:    PAW_PBE O 08Apr2002                   
   SHA256 =  818f92134a0a090dccd8ba1447fa70422a3b330e708bb4f08108d8ae51209ddf O/POTCAR              
   COPYR  = (c) Copyright 08Apr2002 Georg Kresse                                                    
   COPYR  = This file is part of the software VASP. Any use, copying, and all other rights are regul
   COPYR  = If you do not have a valid VASP license, you may not use, copy or distribute this file. 
   VRHFIN =O: s2p4                                                                                  
   LEXCH  = PE                                                                                      
   EATOM  =   432.3788 eV,   31.7789 Ry                                                             
                                                                                                    
   TITEL  = PAW_PBE O 08Apr2002                                                                     
   LULTRA =        F    use ultrasoft PP ?                                                          
   IUNSCR =        1    unscreen: 0-lin 1-nonlin 2-no                                               
   RPACOR =    1.200    partial core radius                                                         
   POMASS =   16.000; ZVAL   =    6.000    mass and valenz                                          
   RCORE  =    1.520    outmost cutoff radius                                                       
   RWIGS  =    1.550; RWIGS  =    0.820    wigner-seitz radius (au A)                               
   ENMAX  =  400.000; ENMIN  =  300.000 eV                                                          
   ICORE  =        2    local potential                                                             
   LCOR   =        T    correct aug charges                                                         
   LPAW   =        T    paw PP                                                                      
   EAUG   =  605.392                                                                                
   DEXC   =    0.000                                                                                
   RMAX   =    1.553    core radius for proj-oper                                                   
   RAUG   =    1.300    factor for augmentation sphere                                              
   RDEP   =    1.550    radius for radial grids                                                     
   RDEPT  =    1.329    core radius for aug-charge                                                  
                                                                                                    
   Atomic configuration                                                                             
    4 entries                                                                                       
     n  l   j            E        occ.                                                              
     1  0  0.50      -514.6923   2.0000                                                             
     2  0  0.50       -23.9615   2.0000                                                             
     2  1  0.50        -9.0305   4.0000                                                             
     3  2  1.50        -9.5241   0.0000                                                             
   Description                                                                                      
     l       E           TYP  RCUT    TYP  RCUT                                                     
     0    -23.9615318     23  1.200                                                                 
     0     -9.5240782     23  1.200                                                                 
     1     -9.0304911     23  1.520                                                                 
     1      8.1634956     23  1.520                                                                 
     2     -9.5240782      7  1.500                                                                 
  local pseudopotential read in
  partial core-charges read in
  partial kinetic energy density read in
  kinetic energy density of atom read in
  atomic valenz-charges read in
  non local Contribution for L=           0  read in
    real space projection operators read in
  non local Contribution for L=           0  read in
    real space projection operators read in
  non local Contribution for L=           1  read in
    real space projection operators read in
  non local Contribution for L=           1  read in
    real space projection operators read in
    PAW grid and wavefunctions read in
 
   number of l-projection  operators is LMAX  =           4
   number of lm-projection operators is LMMAX =           8
 
 POTCAR:    PAW_PBE Ir 06Sep2000                  
   SHA256 =  7c6af8d4d487b237782eb51e6f62977b27a1da78c3c96acd1cebefd6c308f120 Ir/POTCAR             
   COPYR  = (c) Copyright 06Sep2000 Georg Kresse                                                    
   COPYR  = This file is part of the software VASP. Any use, copying, and all other rights are regul
   COPYR  = If you do not have a valid VASP license, you may not use, copy or distribute this file. 
   VRHFIN =Ir: s1d8                                                                                 
   LEXCH  = PE                                                                                      
   EATOM  =   560.1833 eV,   41.1723 Ry                                                             
                                                                                                    
   TITEL  = PAW_PBE Ir 06Sep2000                                                                    
   LULTRA =        F    use ultrasoft PP ?                                                          
   IUNSCR =        1    unscreen: 0-lin 1-nonlin 2-no                                               
   RPACOR =    2.250    partial core radius                                                         
   POMASS =  192.220; ZVAL   =    9.000    mass and valenz                                          
   RCORE  =    2.600    outmost cutoff radius                                                       
   RWIGS  =    2.690; RWIGS  =    1.423    wigner-seitz radius (au A)                               
   ENMAX  =  210.864; ENMIN  =  158.148 eV                                                          
   RCLOC  =    1.857    cutoff for local pot                                                        
   LCOR   =        T    correct aug charges                                                         
   LPAW   =        T    paw PP                                                                      
   EAUG   =  318.962                                                                                
   DEXC   =    0.000                                                                                
   RMAX   =    2.667    core radius for proj-oper                                                   
   RAUG   =    1.300    factor for augmentation sphere                                              
   RDEP   =    2.748    radius for radial grids                                                     
   RDEPT  =    2.300    core radius for aug-charge                                                  
                                                                                                    
   Atomic configuration                                                                             
   16 entries                                                                                       
     n  l   j            E        occ.                                                              
     1  0  0.50    -76100.0449   2.0000                                                             
     2  0  0.50    -13308.1683   2.0000                                                             
     2  1  1.50    -11558.0021   6.0000                                                             
     3  0  0.50     -3110.7274   2.0000                                                             
     3  1  1.50     -2599.2109   6.0000                                                             
     3  2  2.50     -2037.1515  10.0000                                                             
     4  0  0.50      -661.6001   2.0000                                                             
     4  1  1.50      -493.8981   6.0000                                                             
     4  2  2.50      -288.1909  10.0000                                                             
     4  3  3.50       -59.5718  14.0000                                                             
     5  0  0.50       -95.3879   2.0000                                                             
     5  1  1.50       -52.2747   6.0000                                                             
     5  2  2.50        -5.4180   8.0000                                                             
     6  0  0.50        -5.5479   1.0000                                                             
     6  1  1.50        -6.8029   0.0000                                                             
     5  3  2.50        -1.3606   0.0000                                                             
   Description                                                                                      
     l       E           TYP  RCUT    TYP  RCUT                                                     
     2     -5.4179967     23  2.600                                                                 
     2     -6.7785793     23  2.600                                                                 
     0     -5.5478636     23  2.600                                                                 
     0      2.2542272     23  2.600                                                                 
     1     -2.7211652     23  2.600                                                                 
     1     20.4087390     23  2.600                                                                 
  local pseudopotential read in
  partial core-charges read in
  partial kinetic energy density read in
  atomic valenz-charges read in
  non local Contribution for L=           2  read in
    real space projection operators read in
  non local Contribution for L=           2  read in
    real space projection operators read in
  non local Contribution for L=           0  read in
    real space projection operators read in
  non local Contribution for L=           0  read in
    real space projection operators read in
  non local Contribution for L=           1  read in
    real space projection operators read in
  non local Contribution for L=           1  read in
    real space projection operators read in
    PAW grid and wavefunctions read in
 
   number of l-projection  operators is LMAX  =           6
   number of lm-projection operators is LMMAX =          18
 
 -----------------------------------------------------------------------------
|                                                                             |
|               ----> ADVICE to this user running VASP <----                  |
|                                                                             |
|     You have a (more or less) 'large supercell' and for larger cells it     |
|     might be more efficient to use real-space projection operators.         |
|     Therefore, try LREAL= Auto in the INCAR file.                           |
|     Mind: For very accurate calculation, you might also keep the            |
|     reciprocal projection scheme (i.e. LREAL=.FALSE.).                      |
|                                                                             |
 -----------------------------------------------------------------------------

  PAW_PBE Ce 23Dec2003                  :
 energy of atom  1       EATOM=-1063.0861
 kinetic energy error for atom=    0.0133 (will be added to EATOM!!)
  PAW_PBE O 08Apr2002                   :
 energy of atom  2       EATOM= -432.3788
 kinetic energy error for atom=    0.0208 (will be added to EATOM!!)
  PAW_PBE Ir 06Sep2000                  :
 energy of atom  3       EATOM= -560.1833
 kinetic energy error for atom=    0.0013 (will be added to EATOM!!)
 
 
 POSCAR: Generated by VASPKIT code
  positions in direct lattice
  No initial velocities read in


 exchange-correlation table for PE
   RHO(1)=    0.500       N(1)  =     2000
   RHO(2)=  100.500       N(2)  =     4000
 


--------------------------------------------------------------------------------------------------------


 ion  position               nearest neighbor table
   1  0.003  0.997  0.459-  52 2.24  23 2.35  31 2.36  21 2.38  61 2.38  62 2.41  22 2.41  71 3.25
                            68 3.26
   2  0.222  0.111  0.310-  21 2.35  50 2.37  43 2.37  28 2.37  25 2.37  23 2.37  20 2.37
   3  0.325  0.997  0.462-  52 2.23  51 2.34  57 2.34  21 2.36  28 2.40  26 2.41  24 2.51  27 2.53
                            69 3.29
   4  0.556  0.111  0.310-  26 2.36  48 2.37  30 2.37  33 2.37  55 2.37  25 2.37  28 2.37
   5  0.670  0.006  0.464-  32 2.25  31 2.39  26 2.39  56 2.41  62 2.42  29 2.42  33 2.45  57 2.46

   6  0.889  0.111  0.310-  60 2.37  38 2.37  20 2.37  23 2.37  33 2.37  30 2.37  31 2.39
   7  0.994  0.330  0.464-  32 2.25  31 2.39  46 2.39  36 2.41  34 2.42  22 2.42  38 2.45  37 2.46

   8  0.222  0.444  0.310-  20 2.37  38 2.37  43 2.37  40 2.37  58 2.37  35 2.37  36 2.38
   9  0.333  0.334  0.458-  36 2.29  21 2.31  43 2.34  41 2.37  27 2.38  42 2.39  22 2.43  68 3.27

  10  0.556  0.444  0.310-  41 2.33  48 2.37  25 2.37  45 2.37  63 2.37  43 2.37  40 2.37
  11  0.671  0.329  0.457-  32 2.25  48 2.30  46 2.34  26 2.34  47 2.38  27 2.38  41 2.47  70 3.26
                            69 3.26
  12  0.889  0.444  0.310-  46 2.36  30 2.37  38 2.37  48 2.37  35 2.37  53 2.37  45 2.37
  13  0.003  0.675  0.462-  52 2.23  51 2.34  37 2.35  61 2.37  53 2.40  46 2.41  49 2.50  47 2.53
                            70 3.28
  14  0.222  0.778  0.310-  51 2.34  35 2.37  28 2.37  58 2.37  55 2.37  53 2.37  50 2.37
  15  0.334  0.666  0.460-  58 2.36  51 2.42  37 2.44  57 2.44  42 2.45  56 2.45  36 2.45  72 3.27
                            73 3.27
  16  0.556  0.778  0.310-  33 2.37  60 2.37  63 2.37  40 2.37  55 2.37  58 2.37  56 2.38
  17  0.666  0.667  0.459-  56 2.29  61 2.31  63 2.34  41 2.37  47 2.38  42 2.39  62 2.44  66 2.57
                            71 3.27
  18  0.889  0.778  0.310-  61 2.35  45 2.37  23 2.37  50 2.37  53 2.37  63 2.37  60 2.37
  19  0.006  0.995  0.582-  71 1.94  68 1.94
  20  0.111  0.222  0.272-   8 2.37   6 2.37   2 2.37
  21  0.227  0.118  0.422-   9 2.31   2 2.35   3 2.36   1 2.38
  22  0.109  0.219  0.503-  68 1.95   1 2.41   7 2.42   9 2.43
  23  0.000  0.000  0.347-   1 2.35  18 2.37   6 2.37   2 2.37
  24  0.336  0.032  0.579-  69 1.81   3 2.51
  25  0.444  0.222  0.272-   2 2.37  10 2.37   4 2.37
  26  0.550  0.107  0.422-  11 2.34   4 2.36   5 2.39   3 2.41
  27  0.454  0.235  0.501-  69 1.95  11 2.38   9 2.38   3 2.53
  28  0.333  0.000  0.347-  14 2.37   2 2.37   4 2.37   3 2.40
  29  0.643  0.983  0.578-  72 1.82   5 2.42
  30  0.778  0.222  0.272-  12 2.37   4 2.37   6 2.37
  31  0.892  0.109  0.423-   1 2.36   7 2.39   6 2.39   5 2.39
  32  0.778  0.222  0.490-   5 2.25   7 2.25  11 2.25
  33  0.667  0.000  0.347-  16 2.37   6 2.37   4 2.37   5 2.45
  34  0.016  0.357  0.578-  73 1.82   7 2.42
  35  0.111  0.556  0.272-  14 2.37  12 2.37   8 2.37
  36  0.218  0.434  0.423-   9 2.29   8 2.38   7 2.41  15 2.45
  37  0.108  0.562  0.502-  73 1.95  13 2.35  15 2.44   7 2.46
  38  0.000  0.333  0.347-   6 2.37   8 2.37  12 2.37   7 2.45
  39  0.317  0.348  0.594-  68 1.94  67 1.94
  40  0.444  0.556  0.272-  16 2.37   8 2.37  10 2.37
  41  0.555  0.446  0.420-  10 2.33  17 2.37   9 2.37  11 2.47
  42  0.447  0.552  0.503-  67 1.94   9 2.39  17 2.39  15 2.45
  43  0.333  0.333  0.347-   9 2.34   2 2.37   8 2.37  10 2.37
  44  0.659  0.341  0.591-  70 1.88  69 1.88
  45  0.778  0.556  0.272-  18 2.37  10 2.37  12 2.37
  46  0.893  0.450  0.422-  11 2.34  12 2.36   7 2.39  13 2.41
  47  0.765  0.546  0.501-  70 1.95  11 2.38  17 2.38  13 2.53
  48  0.667  0.333  0.347-  11 2.30   4 2.37  12 2.37  10 2.37
  49  0.970  0.664  0.579-  70 1.81  13 2.50
  50  0.111  0.889  0.272-   2 2.37  18 2.37  14 2.37
  51  0.220  0.780  0.421-  14 2.34  13 2.34   3 2.34  15 2.42
  52  0.110  0.890  0.488-   3 2.23  13 2.23   1 2.24
  53  0.000  0.667  0.347-  18 2.37  14 2.37  12 2.37  13 2.40
  54  0.305  0.695  0.597-  72 1.88  73 1.88
  55  0.444  0.889  0.272-  14 2.37   4 2.37  16 2.37
  56  0.566  0.782  0.423-  17 2.29  16 2.38   5 2.41  15 2.45
  57  0.438  0.892  0.502-  72 1.94   3 2.34  15 2.44   5 2.46
  58  0.333  0.667  0.347-  15 2.36  14 2.37   8 2.37  16 2.37
  59  0.654  0.681  0.591-  71 1.94  67 1.95
  60  0.778  0.889  0.272-   6 2.37  16 2.37  18 2.37
  61  0.882  0.773  0.422-  17 2.31  18 2.35  13 2.37   1 2.38
  62  0.781  0.891  0.503-  71 1.95   1 2.41   5 2.42  17 2.44
  63  0.667  0.667  0.347-  17 2.34  16 2.37  18 2.37  10 2.37
  64  0.429  0.587  0.653-  67 1.88
  65  0.544  0.473  0.673-  67 2.05
  66  0.571  0.458  0.529-  67 1.90  17 2.57
  67  0.485  0.514  0.588-  64 1.88  66 1.90  42 1.94  39 1.94  59 1.95  65 2.05
  68  0.160  0.173  0.584-  39 1.94  19 1.94  22 1.95   1 3.26   9 3.27
  69  0.493  0.186  0.583-  24 1.81  44 1.88  27 1.95  11 3.26   3 3.29
  70  0.815  0.507  0.583-  49 1.81  44 1.88  47 1.95  11 3.26  13 3.28
  71  0.827  0.841  0.583-  59 1.94  19 1.94  62 1.95   1 3.25  17 3.27
  72  0.473  0.846  0.586-  29 1.82  54 1.88  57 1.94  15 3.27
  73  0.154  0.526  0.586-  34 1.82  54 1.88  37 1.95  15 3.27
 
  LATTYP: Found a hexagonal cell.
 ALAT       =    11.5981998444
 C/A-ratio  =     1.8147816808
  
  Lattice vectors:
  
 A1 = (  11.5981998444,   0.0000000000,   0.0000000000)
 A2 = (  -5.7990999222,  10.0443357034,   0.0000000000)
 A3 = (   0.0000000000,   0.0000000000,  21.0482006073)


Analysis of symmetry for initial positions (statically):
=====================================================================
 Subroutine PRICEL returns:
 Original cell was already a primitive cell.
 

 Routine SETGRP: Setting up the symmetry group for a 
 hexagonal supercell.


 Subroutine GETGRP returns: Found  1 space group operations
 (whereof  1 operations were pure point group operations)
 out of a pool of 24 trial point group operations.


The static configuration has the point symmetry C_1 .


Analysis of symmetry for dynamics (positions and initial velocities):
=====================================================================
 Subroutine PRICEL returns:
 Original cell was already a primitive cell.
 

 Routine SETGRP: Setting up the symmetry group for a 
 hexagonal supercell.


 Subroutine GETGRP returns: Found  1 space group operations
 (whereof  1 operations were pure point group operations)
 out of a pool of 24 trial point group operations.


The dynamic configuration has the point symmetry C_1 .


Analysis of constrained symmetry for selective dynamics:
=====================================================================
 Subroutine PRICEL returns:
 Original cell was already a primitive cell.
 

 Routine SETGRP: Setting up the symmetry group for a 
 hexagonal supercell.


 Subroutine GETGRP returns: Found  1 space group operations
 (whereof  1 operations were pure point group operations)
 out of a pool of 24 trial point group operations.


The constrained configuration has the point symmetry C_1 .


Analysis of structural, dynamic, and magnetic symmetry:
=====================================================================
 Subroutine PRICEL returns:
 Original cell was already a primitive cell.
 

 Routine SETGRP: Setting up the symmetry group for a 
 hexagonal supercell.


 Subroutine GETGRP returns: Found  1 space group operations
 (whereof  1 operations were pure point group operations)
 out of a pool of 24 trial point group operations.


The overall configuration has the point symmetry C_1 .


 Subroutine INISYM returns: Found  1 space group operations
 (whereof  1 operations are pure point group operations),
 and found     1 'primitive' translations


----------------------------------------------------------------------------------------

                                     Primitive cell                                     

  volume of cell :    2452.0357

  direct lattice vectors                    reciprocal lattice vectors
    11.598199844  0.000000000  0.000000000     0.086220277  0.049779300  0.000000000
    -5.799099922 10.044335703  0.000000000     0.000000000  0.099558600  0.000000000
     0.000000000  0.000000000 21.048200607     0.000000000  0.000000000  0.047509999

  length of vectors
    11.598199844 11.598199844 21.048200607     0.099558600  0.099558600  0.047509999

  position of ions in fractional coordinates (direct lattice)
     0.003060000  0.997010000  0.459040000
     0.222220000  0.111110000  0.309960000
     0.325490000  0.996940000  0.461560000
     0.555560000  0.111110000  0.309960000
     0.669560000  0.005750000  0.463950000
     0.888890000  0.111110000  0.309960000
     0.994290000  0.330430000  0.463880000
     0.222220000  0.444440000  0.309960000
     0.332820000  0.333880000  0.458480000
     0.555560000  0.444440000  0.309960000
     0.671350000  0.328770000  0.456540000
     0.888890000  0.444440000  0.309960000
     0.003160000  0.674530000  0.461540000
     0.222220000  0.777780000  0.309960000
     0.334060000  0.665940000  0.459750000
     0.555560000  0.777780000  0.309960000
     0.666130000  0.667210000  0.458730000
     0.888890000  0.777780000  0.309960000
     0.005650000  0.994850000  0.582100000
     0.111110000  0.222220000  0.272470000
     0.226560000  0.117650000  0.421600000
     0.109180000  0.218850000  0.502970000
     0.000000000  0.000000000  0.347450000
     0.335560000  0.031610000  0.579380000
     0.444440000  0.222220000  0.272470000
     0.550300000  0.107270000  0.421910000
     0.453820000  0.235230000  0.500600000
     0.333330000  0.000000000  0.347450000
     0.642830000  0.983220000  0.578040000
     0.777780000  0.222220000  0.272470000
     0.891580000  0.108570000  0.423390000
     0.777610000  0.222350000  0.490350000
     0.666670000  0.000000000  0.347450000
     0.016300000  0.356880000  0.578000000
     0.111110000  0.555560000  0.272470000
     0.217630000  0.434140000  0.422800000
     0.108060000  0.562050000  0.502200000
     1.000000000  0.333330000  0.347450000
     0.316560000  0.347680000  0.593590000
     0.444440000  0.555560000  0.272470000
     0.554580000  0.445640000  0.420430000
     0.446860000  0.552420000  0.502930000
     0.333330000  0.333330000  0.347450000
     0.659200000  0.341180000  0.591270000
     0.777780000  0.555560000  0.272470000
     0.892770000  0.449650000  0.421860000
     0.765080000  0.546080000  0.500640000
     0.666670000  0.333330000  0.347450000
     0.969900000  0.663670000  0.579080000
     0.111110000  0.888890000  0.272470000
     0.220440000  0.779620000  0.421160000
     0.110380000  0.889730000  0.488340000
     1.000000000  0.666670000  0.347450000
     0.305170000  0.694530000  0.597040000
     0.444440000  0.888890000  0.272470000
     0.565860000  0.782330000  0.422940000
     0.437720000  0.892090000  0.502320000
     0.333330000  0.666670000  0.347450000
     0.654220000  0.680980000  0.591450000
     0.777780000  0.888890000  0.272470000
     0.882260000  0.773470000  0.421650000
     0.781400000  0.891450000  0.502980000
     0.666670000  0.666670000  0.347450000
     0.429250000  0.586670000  0.652830000
     0.544150000  0.472720000  0.672550000
     0.570660000  0.457800000  0.528630000
     0.484810000  0.514150000  0.587800000
     0.159600000  0.173400000  0.583770000
     0.492880000  0.185660000  0.582710000
     0.815470000  0.506710000  0.582530000
     0.827440000  0.840640000  0.583390000
     0.473110000  0.846320000  0.586150000
     0.153550000  0.526430000  0.586070000

  ion indices of the primitive-cell ions
   primitive index   ion index
                 1           1
                 2           2
                 3           3
                 4           4
                 5           5
                 6           6
                 7           7
                 8           8
                 9           9
                10          10
                11          11
                12          12
                13          13
                14          14
                15          15
                16          16
                17          17
                18          18
                19          19
                20          20
                21          21
                22          22
                23          23
                24          24
                25          25
                26          26
                27          27
                28          28
                29          29
                30          30
                31          31
                32          32
                33          33
                34          34
                35          35
                36          36
                37          37
                38          38
                39          39
                40          40
                41          41
                42          42
                43          43
                44          44
                45          45
                46          46
                47          47
                48          48
                49          49
                50          50
                51          51
                52          52
                53          53
                54          54
                55          55
                56          56
                57          57
                58          58
                59          59
                60          60
                61          61
                62          62
                63          63
                64          64
                65          65
                66          66
                67          67
                68          68
                69          69
                70          70
                71          71
                72          72
                73          73

----------------------------------------------------------------------------------------

 
 
 KPOINTS: K-Spacing Value to Generate K-Mesh: 0.03

Automatic generation of k-mesh.
 Grid dimensions read from file:
 generate k-points for:    1    1    1

 Generating k-lattice:

  Cartesian coordinates                     Fractional coordinates (reciprocal lattice)
     0.086220277  0.049779300  0.000000000     1.000000000 -0.000000000  0.000000000
     0.000000000  0.099558600  0.000000000     0.000000000  1.000000000  0.000000000
     0.000000000  0.000000000  0.047509999     0.000000000  0.000000000  1.000000000

  Length of vectors
     0.099558600  0.099558600  0.047509999

  Shift w.r.t. Gamma in fractional coordinates (k-lattice)
     0.000000000  0.000000000  0.000000000

 
 Subroutine IBZKPT returns following result:
 ===========================================
 
 Found      1 irreducible k-points:
 
 Following reciprocal coordinates:
            Coordinates               Weight
  0.000000  0.000000  0.000000      1.000000
 
 Following cartesian coordinates:
            Coordinates               Weight
  0.000000  0.000000  0.000000      1.000000
 


--------------------------------------------------------------------------------------------------------




 Dimension of arrays:
   k-points           NKPTS =      1   k-points in BZ     NKDIM =      1   number of bands    NBANDS=    384
   number of dos      NEDOS =    301   number of ions     NIONS =     73
   non local maximal  LDIM  =      8   non local SUM 2l+1 LMDIM =     32
   total plane-waves  NPLWV = ******
   max r-space proj   IRMAX =      1   max aug-charges    IRDMAX= 305922
   dimension x,y,z NGX =    90 NGY =   90 NGZ =  160
   dimension x,y,z NGXF=   180 NGYF=  180 NGZF=  320
   support grid    NGXF=   360 NGYF=  360 NGZF=  640
   ions per type =              18  48   7
   NGX,Y,Z   is equivalent  to a cutoff of  12.90, 12.90, 12.64 a.u.
   NGXF,Y,Z  is equivalent  to a cutoff of  25.80, 25.80, 25.27 a.u.

 SYSTEM =  unknown system                          
 POSCAR =  Generated by VASPKIT code               

 Startparameter for this run:
   NWRITE =      2    write-flag & timer
   PREC   = accura    normal or accurate (medium, high low for compatibility)
   ISTART =      0    job   : 0-new  1-cont  2-samecut
   ICHARG =      2    charge: 1-file 2-atom 10-const
   ISPIN  =      2    spin polarized calculation?
   LNONCOLLINEAR =      F non collinear calculations
   LSORBIT =      F    spin-orbit coupling
   INIWAV =      1    electr: 0-lowe 1-rand  2-diag
   LASPH  =      T    aspherical Exc in radial PAW
 Electronic Relaxation 1
   ENCUT  =  520.0 eV  38.22 Ry    6.18 a.u.  21.56 21.56 39.14*2*pi/ulx,y,z
   ENINI  =  520.0     initial cutoff
   ENAUG  =  605.4 eV  augmentation charge cutoff
   NELM   =     90;   NELMIN=  6; NELMDL=  0     # of ELM steps 
   EDIFF  = 0.1E-05   stopping-criterion for ELM
   LREAL  =      F    real-space projection
   NLSPLINE    = F    spline interpolate recip. space projectors
   LCOMPAT=      F    compatible to vasp.4.4
   GGA_COMPAT  = T    GGA compatible to vasp.4.4-vasp.4.6
   LMAXPAW     = -100 max onsite density
   LMAXMIX     =    6 max onsite mixed and CHGCAR
   VOSKOWN=      0    Vosko Wilk Nusair interpolation
   ROPT   =    0.00000   0.00000   0.00000
 Ionic relaxation
   EDIFFG = -.2E-01   stopping-criterion for IOM
   NSW    =    300    number of steps for IOM
   NBLOCK =      1;   KBLOCK =    300    inner block; outer block 
   IBRION =      2    ionic relax: 0-MD 1-quasi-New 2-CG
   NFREE  =      1    steps in history (QN), initial steepest desc. (CG)
   ISIF   =      2    stress and relaxation
   IWAVPR =     11    prediction:  0-non 1-charg 2-wave 3-comb
   ISYM   =      2    0-nonsym 1-usesym 2-fastsym
   LCORR  =      T    Harris-Foulkes like correction to forces

   POTIM  = 0.5000    time-step for ionic-motion
   TEIN   =    0.0    initial temperature
   TEBEG  =    0.0;   TEEND  =   0.0 temperature during run
   SMASS  =  -3.00    Nose mass-parameter (am)
   estimated Nose-frequenzy (Omega)   =  0.10E-29 period in steps = 0.13E+47 mass=  -0.307E-26a.u.
   SCALEE = 1.0000    scale energy and forces
   NPACO  =    256;   APACO  = 10.0  distance and # of slots for P.C.
   PSTRESS=    0.0 pullay stress

  Mass of Ions in am
   POMASS = 140.12 16.00192.22
  Ionic Valenz
   ZVAL   =  12.00  6.00  9.00
  Atomic Wigner-Seitz radii
   RWIGS  =  -1.00 -1.00 -1.00
  virtual crystal weights 
   VCA    =   1.00  1.00  1.00
   NELECT =     567.0000    total number of electrons
   NUPDOWN=      -1.0000    fix difference up-down

 DOS related values:
   EMIN   =  10.00;   EMAX   =-10.00  energy-range for DOS
   EFERMI =   0.00;   METHOD = LEGACY      
   ISMEAR =     0;   SIGMA  =   0.05  broadening in eV -4-tet -1-fermi 0-gaus

 Electronic relaxation 2 (details)
   IALGO  =     38    algorithm
   LDIAG  =      T    sub-space diagonalisation (order eigenvalues)
   LSUBROT=      F    optimize rotation matrix (better conditioning)
   TURBO    =      0    0=normal 1=particle mesh
   IRESTART =      0    0=no restart 2=restart with 2 vectors
   NREBOOT  =      0    no. of reboots
   NMIN     =      0    reboot dimension
   EREF     =   0.00    reference energy to select bands
   IMIX   =      4    mixing-type and parameters
     AMIX     =   0.40;   BMIX     =  1.00
     AMIX_MAG =   1.60;   BMIX_MAG =  1.00
     AMIN     =   0.10
     WC   =   100.;   INIMIX=   1;  MIXPRE=   1;  MAXMIX= -45

 Intra band minimization:
   WEIMIN = 0.0010     energy-eigenvalue tresh-hold
   EBREAK =  0.65E-09  absolut break condition
   DEPER  =   0.30     relativ break condition  

   TIME   =   0.40     timestep for ELM

  volume/ion in A,a.u.               =      33.59       226.67
  Fermi-wavevector in a.u.,A,eV,Ry     =   1.004832  1.898858 13.737639  1.009688
  Thomas-Fermi vector in A             =   2.137473
 
 Write flags
   LWAVE        =      F    write WAVECAR
   LDOWNSAMPLE  =      F    k-point downsampling of WAVECAR
   LCHARG       =      F    write CHGCAR
   LVTOT        =      F    write LOCPOT, total local potential
   LVHAR        =      F    write LOCPOT, Hartree potential only
   WRT_POTENTIAL= false  ! write potential to hdf5 file
   LELF         =      F    write electronic localiz. function (ELF)
   LORBIT       =      0    0 simple, 1 ext, 2 COOP (PROOUT), +10 PAW based schemes


 Dipole corrections
   LMONO      =      F    monopole corrections only (constant potential shift)
   LDIPOL     =      F    correct potential (dipole corrections)
   IDIPOL     =      0    1-x, 2-y, 3-z, 4-all directions 
   EPSILON    =  1.0000000 bulk dielectric constant
   LVACPOTAV  =      F  vacuum potentials using an averaging scheme for the charge density
   VACPOTFLAT =  0.1000000 required flatness to determine vacuum potential
 LDA+U is selected, type is set to LDAUTYPE =  2
   angular momentum for each species LDAUL =     3   -1    2
   U (eV)           for each species LDAUU =   5.0  0.0  2.0
   J (eV)           for each species LDAUJ =   0.0  0.0  0.0
 Exchange correlation treatment:
   GGA     = PE    functional components
   XC_C    = 1    coefficients multiplying the functional components
   LIBXC   =     F    Libxc                    
   VOSKOWN =     0    Vosko Wilk Nusair interpolation
   LHFCALC =     F    Hartree Fock is set to
   LHFONE  =     F    Hartree Fock one center treatment
   AEXX    =    0.0000 exact exchange contribution

 Parameters of functionals:
   PE:
     No parameter
 
 Van der Waals corrections
   IVDW    =     0    specifies the selected vdW correction

 Linear response parameters
   LEPSILON=     F    determine dielectric tensor
   LRPA    =     F    only Hartree local field effects (RPA)
   LNABLA  =     F    use nabla operator in PAW spheres
   LVEL    =     F    velocity operator in full k-point grid
   CSHIFT  =0.1000    complex shift for real part using Kramers Kronig
   OMEGAMAX=  -1.0    maximum frequency
   DEG_THRESHOLD= 0.2000000E-02 threshold for treating states as degnerate
   RTIME   =   -0.100 relaxation time in fs
  (WPLASMAI=    0.000 imaginary part of plasma frequency in eV, 0.658/RTIME)
   DFIELD  = 0.0000000 0.0000000 0.0000000 field for delta impulse in time
 
  Optional k-point grid parameters
   LKPOINTS_OPT  =     F    use optional k-point grid
   KPOINTS_OPT_MODE=     1    mode for optional k-point grid
 
 Orbital magnetization related:
   ORBITALMAG=     F  switch on orbital magnetization
   LCHIMAG   =     F  perturbation theory with respect to B field
   DQ        =  0.001000  dq finite difference perturbation B field
   LLRAUG    =     F  two centre corrections for induced B field
   LBONE     =     F  B-component reconstruction in AE one-centre
   LVGVCALC  =     T  calculate vGv susceptibility
   LVGVAPPL  =     F  apply vGv susceptibility instead of pGv for G=0

 Random number generation:
   RANDOM_GENERATOR = DEFAULT
   PCG_SEED         = not used


--------------------------------------------------------------------------------------------------------


 conjugate gradient relaxation of ions
   using selective dynamics as specified on POSCAR
 charge density and potential will be updated during run
 spin polarized calculation
 Variant of blocked Davidson
 Davidson routine will perform the subspace rotation
 perform sub-space diagonalisation
    after iterative eigenvector-optimisation
 modified Broyden-mixing scheme, WC =      100.0
 initial mixing is a Kerker type mixing with AMIX =  0.4000 and BMIX =      1.0000
 Hartree-type preconditioning will be used
 using additional bands          100
 reciprocal scheme for non local part
 use partial core corrections
 calculate Harris-corrections to forces 
   (improved forces if not selfconsistent)
 use gradient corrections 
 use of overlap-Matrix (Vanderbilt PP)
 Gauss-broadening in eV      SIGMA  =   0.05


--------------------------------------------------------------------------------------------------------


  energy-cutoff  :      520.00
  volume of cell :     2452.04
      direct lattice vectors                 reciprocal lattice vectors
    11.598199844  0.000000000  0.000000000     0.086220277  0.049779300  0.000000000
    -5.799099922 10.044335703  0.000000000     0.000000000  0.099558600  0.000000000
     0.000000000  0.000000000 21.048200607     0.000000000  0.000000000  0.047509999

  length of vectors
    11.598199844 11.598199844 21.048200607     0.099558600  0.099558600  0.047509999


 
 k-points in units of 2pi/SCALE and weight: K-Spacing Value to Generate K-Mesh: 0.03
   0.00000000  0.00000000  0.00000000       1.000
 
 k-points in reciprocal lattice and weights: K-Spacing Value to Generate K-Mesh: 0.03
   0.00000000  0.00000000  0.00000000       1.000
 
 position of ions in fractional coordinates (direct lattice) 
   0.00306000  0.99701000  0.45904000
   0.22222000  0.11111000  0.30996000
   0.32549000  0.99694000  0.46156000
   0.55556000  0.11111000  0.30996000
   0.66956000  0.00575000  0.46395000
   0.88889000  0.11111000  0.30996000
   0.99429000  0.33043000  0.46388000
   0.22222000  0.44444000  0.30996000
   0.33282000  0.33388000  0.45848000
   0.55556000  0.44444000  0.30996000
   0.67135000  0.32877000  0.45654000
   0.88889000  0.44444000  0.30996000
   0.00316000  0.67453000  0.46154000
   0.22222000  0.77778000  0.30996000
   0.33406000  0.66594000  0.45975000
   0.55556000  0.77778000  0.30996000
   0.66613000  0.66721000  0.45873000
   0.88889000  0.77778000  0.30996000
   0.00565000  0.99485000  0.58210000
   0.11111000  0.22222000  0.27247000
   0.22656000  0.11765000  0.42160000
   0.10918000  0.21885000  0.50297000
   0.00000000  0.00000000  0.34745000
   0.33556000  0.03161000  0.57938000
   0.44444000  0.22222000  0.27247000
   0.55030000  0.10727000  0.42191000
   0.45382000  0.23523000  0.50060000
   0.33333000  0.00000000  0.34745000
   0.64283000  0.98322000  0.57804000
   0.77778000  0.22222000  0.27247000
   0.89158000  0.10857000  0.42339000
   0.77761000  0.22235000  0.49035000
   0.66667000  0.00000000  0.34745000
   0.01630000  0.35688000  0.57800000
   0.11111000  0.55556000  0.27247000
   0.21763000  0.43414000  0.42280000
   0.10806000  0.56205000  0.50220000
   0.00000000  0.33333000  0.34745000
   0.31656000  0.34768000  0.59359000
   0.44444000  0.55556000  0.27247000
   0.55458000  0.44564000  0.42043000
   0.44686000  0.55242000  0.50293000
   0.33333000  0.33333000  0.34745000
   0.65920000  0.34118000  0.59127000
   0.77778000  0.55556000  0.27247000
   0.89277000  0.44965000  0.42186000
   0.76508000  0.54608000  0.50064000
   0.66667000  0.33333000  0.34745000
   0.96990000  0.66367000  0.57908000
   0.11111000  0.88889000  0.27247000
   0.22044000  0.77962000  0.42116000
   0.11038000  0.88973000  0.48834000
   0.00000000  0.66667000  0.34745000
   0.30517000  0.69453000  0.59704000
   0.44444000  0.88889000  0.27247000
   0.56586000  0.78233000  0.42294000
   0.43772000  0.89209000  0.50232000
   0.33333000  0.66667000  0.34745000
   0.65422000  0.68098000  0.59145000
   0.77778000  0.88889000  0.27247000
   0.88226000  0.77347000  0.42165000
   0.78140000  0.89145000  0.50298000
   0.66667000  0.66667000  0.34745000
   0.42925000  0.58667000  0.65283000
   0.54415000  0.47272000  0.67255000
   0.57066000  0.45780000  0.52863000
   0.48481000  0.51415000  0.58780000
   0.15960000  0.17340000  0.58377000
   0.49288000  0.18566000  0.58271000
   0.81547000  0.50671000  0.58253000
   0.82744000  0.84064000  0.58339000
   0.47311000  0.84632000  0.58615000
   0.15355000  0.52643000  0.58607000
 
 position of ions in cartesian coordinates  (Angst):
  -5.74627012 10.01430314  9.66196601
   1.93301398  1.11602614  6.52410026
  -2.00625661 10.01360004  9.71500747
   5.79915791  1.11602614  6.52410026
   7.73234586  0.05775493  9.76531267
   9.66518587  1.11602614  6.52410026
   9.61577754  3.31894985  9.76383930
  -0.00000000  4.46410456  6.52410026
   1.92390939  3.35360280  9.65017901
   3.86614394  4.46410456  6.52410026
   5.87988138  3.30227625  9.60934551
   7.73217189  4.46410456  6.52410026
  -3.87501656  6.77520576  9.71458651
  -1.93307197  7.81228342  6.52410026
   0.01264204  6.68892492  9.67691023
   1.93307197  7.81228342  6.52410026
   3.85669140  6.70168122  9.65544106
   5.79909992  7.81228342  6.52410026
  -5.70370473  9.99260737 12.25215757
  -0.00000000  2.23205228  5.73500322
   1.94542405  1.18171610  8.87392138
  -0.00284156  2.19820287 10.58661346
   0.00000000  0.00000000  7.31319730
   3.70858239  0.31750145 12.19490647
   3.86602795  2.23205228  5.73500322
   5.76041993  1.07745589  8.88044632
   3.89937278  2.36272909 10.53672922
   3.86602795  0.00000000  7.31319730
   1.75387978  9.87579175 12.16670188
   7.73217189  2.23205228  5.73500322
   9.71111474  1.09051353  8.91159766
   7.72944631  2.23335804 10.32098517
   7.73217189  0.00000000  7.31319730
  -1.88053212  3.58462253 12.16585995
  -1.93307197  5.58023114  5.73500322
   0.00649499  4.36064790  8.89917922
  -2.00608264  5.64541888 10.57040634
  -1.93301398  3.34807842  7.31319730
   1.65529508  3.49221464 12.49400140
   1.93295599  5.58023114  5.73500322
   3.84781878  4.47615776  8.84929498
   1.97923280  5.54869193 10.58577153
   1.93301398  3.34807842  7.31319730
   5.66699643  3.42692646 12.44516957
   5.79909992  5.58023114  5.73500322
   7.74695960  4.51643555  8.87939391
   5.70677825  5.48501084 10.53757115
   5.79915791  3.34807842  7.31319730
   7.40040538  6.66612428 12.18859201
  -3.86608595  8.92830956  5.73500322
  -1.96438711  7.83076500  8.86466017
  -3.87942387  8.93674681 10.27867828
  -3.86608595  6.69625728  7.31319730
  -0.48822622  6.97609248 12.56661769
  -0.00005799  8.92830956  5.73500322
   2.02614752  7.85798515  8.90212596
  -0.09655501  8.96045144 10.57293213
  -0.00005799  6.69625728  7.31319730
   3.63870324  6.83999173 12.44895825
   3.86608595  8.92830956  5.73500322
   5.74719798  7.76899234  8.87497379
   3.89322573  8.95402306 10.58682394
   3.86608595  6.69625728  7.31319730
   1.57636933  5.89271043 13.74089680
   3.56980993  4.74815837 14.15596732
   3.96380078  4.59829689 11.12671029
   2.64131604  5.16429520 12.37213232
   0.84550877  1.74168781 12.28730807
   4.63985985  1.86483137 12.26499698
   6.51952211  5.08956534 12.26120830
   4.72185912  8.44367037 12.27930975
   0.57933008  8.50072219 12.33740279
  -1.27191659  5.28763964 12.33571893
 


--------------------------------------------------------------------------------------------------------


 use parallel FFT for orbitals z direction half grid
 k-point     1 :   0.0000 0.0000 0.0000  plane waves:   33034

 maximum and minimum number of plane-waves per node :      8261     8256

 maximum number of plane-waves:     33034
 maximum index in each direction: 
   IXMAX=   21   IYMAX=   21   IZMAX=   39
   IXMIN=  -21   IYMIN=  -21   IZMIN=    0


 parallel 3D FFT for wavefunctions:
    minimum data exchange during FFTs selected (reduces bandwidth)
 parallel 3D FFT for charge:
    minimum data exchange during FFTs selected (reduces bandwidth)


 total amount of memory used by VASP MPI-rank0    96110. kBytes
=======================================================================

   base      :      30000. kBytes
   nonl-proj :      16076. kBytes
   fftplans  :      15277. kBytes
   grid      :      31656. kBytes
   one-center:        933. kBytes
   wavefun   :       2168. kBytes
 
     INWAV:  cpu time      0.0000: real time      0.0000
 Broyden mixing: mesh for mixing (old mesh)
   NGX = 43   NGY = 43   NGZ = 79
  (NGX  =180   NGY  =180   NGZ  =320)
  gives a total of 146071 points

 initial charge density was supplied:
 charge density of overlapping atoms calculated
 number of electron     567.0000000 magnetization      51.0000000
 keeping initial charge density in first step


--------------------------------------------------------------------------------------------------------


 Maximum index for augmentation-charges         4358 (set IRDMAX)


--------------------------------------------------------------------------------------------------------


 First call to EWALD:  gamma=   0.131
 Maximum number of real-space cells 4x 4x 2
 Maximum number of reciprocal cells 2x 2x 4

    FEWALD:  cpu time      0.0047: real time      0.0047


--------------------------------------- Ionic step        1  -------------------------------------------




--------------------------------------- Iteration      1(   1)  ---------------------------------------


    POTLOK:  cpu time      0.1409: real time      0.1472
    SETDIJ:  cpu time      1.3315: real time      1.3326
     EDDAV:  cpu time      1.7250: real time      1.7637
       DOS:  cpu time      0.0085: real time      0.0095
    --------------------------------------------
      LOOP:  cpu time      3.2059: real time      3.2529

 eigenvalue-minimisations  :  1536
 total energy-change (2. order) : 0.1006687E+05  (-0.2590648E+05)
 number of electron     567.0000000 magnetization      51.0000000
 augmentation part      567.0000000 magnetization      51.0000000

 Free energy of the ion-electron system (eV)
  ---------------------------------------------------
  alpha Z        PSCENC =      1192.14239942
  Ewald energy   TEWEN  =    126526.68828494
  -Hartree energ DENC   =   -166315.60561600
  -exchange      EXHF   =         0.00000000
  -V(xc)+E(xc)   XCENC  =      1301.73349663
  PAW double counting   =     35805.60743451   -35134.85540715
  entropy T*S    EENTRO =        -0.01467586
  eigenvalues    EBANDS =      2881.40617634
  atomic energy  EATOM  =     43809.76760834
  Solvation  Ediel_sol  =         0.00000000
  ---------------------------------------------------
  free energy    TOTEN  =     10066.86970116 eV

  energy without entropy =    10066.88437702  energy(sigma->0) =    10066.87703909


--------------------------------------------------------------------------------------------------------




--------------------------------------- Iteration      1(   2)  ---------------------------------------


     EDDAV:  cpu time      1.8487: real time      1.8491
       DOS:  cpu time      0.0006: real time      0.0006
    --------------------------------------------
      LOOP:  cpu time      1.8492: real time      1.8497

 eigenvalue-minimisations  :  1872
 total energy-change (2. order) :-0.7256013E+04  (-0.6440550E+04)
 number of electron     567.0000000 magnetization      51.0000000
 augmentation part      567.0000000 magnetization      51.0000000

 Free energy of the ion-electron system (eV)
  ---------------------------------------------------
  alpha Z        PSCENC =      1192.14239942
  Ewald energy   TEWEN  =    126526.68828494
  -Hartree energ DENC   =   -166315.60561600
  -exchange      EXHF   =         0.00000000
  -V(xc)+E(xc)   XCENC  =      1301.73349663
  PAW double counting   =     35805.60743451   -35134.85540715
  entropy T*S    EENTRO =        -0.10550624
  eigenvalues    EBANDS =     -4374.51589720
  atomic energy  EATOM  =     43809.76760834
  Solvation  Ediel_sol  =         0.00000000
  ---------------------------------------------------
  free energy    TOTEN  =      2810.85679724 eV

  energy without entropy =     2810.96230348  energy(sigma->0) =     2810.90955036


--------------------------------------------------------------------------------------------------------




--------------------------------------- Iteration      1(   3)  ---------------------------------------


     EDDAV:  cpu time      2.1804: real time      2.1821
       DOS:  cpu time      0.0006: real time      0.0006
    --------------------------------------------
      LOOP:  cpu time      2.1810: real time      2.1827

 eigenvalue-minimisations  :  2304
 total energy-change (2. order) :-0.3056678E+04  (-0.2962434E+04)
 number of electron     567.0000000 magnetization      51.0000000
 augmentation part      567.0000000 magnetization      51.0000000

 Free energy of the ion-electron system (eV)
  ---------------------------------------------------
  alpha Z        PSCENC =      1192.14239942
  Ewald energy   TEWEN  =    126526.68828494
  -Hartree energ DENC   =   -166315.60561600
  -exchange      EXHF   =         0.00000000
  -V(xc)+E(xc)   XCENC  =      1301.73349663
  PAW double counting   =     35805.60743451   -35134.85540715
  entropy T*S    EENTRO =        -0.06287648
  eigenvalues    EBANDS =     -7431.23616798
  atomic energy  EATOM  =     43809.76760834
  Solvation  Ediel_sol  =         0.00000000
  ---------------------------------------------------
  free energy    TOTEN  =      -245.82084378 eV

  energy without entropy =     -245.75796730  energy(sigma->0) =     -245.78940554


--------------------------------------------------------------------------------------------------------




--------------------------------------- Iteration      1(   4)  ---------------------------------------


     EDDAV:  cpu time      2.1452: real time      2.1466
       DOS:  cpu time      0.0007: real time      0.0007
    --------------------------------------------
      LOOP:  cpu time      2.1458: real time      2.1473

 eigenvalue-minimisations  :  2256
 total energy-change (2. order) :-0.4124156E+03  (-0.4039467E+03)
 number of electron     567.0000000 magnetization      51.0000000
 augmentation part      567.0000000 magnetization      51.0000000

 Free energy of the ion-electron system (eV)
  ---------------------------------------------------
  alpha Z        PSCENC =      1192.14239942
  Ewald energy   TEWEN  =    126526.68828494
  -Hartree energ DENC   =   -166315.60561600
  -exchange      EXHF   =         0.00000000
  -V(xc)+E(xc)   XCENC  =      1301.73349663
  PAW double counting   =     35805.60743451   -35134.85540715
  entropy T*S    EENTRO =        -0.03314085
  eigenvalues    EBANDS =     -7843.68149456
  atomic energy  EATOM  =     43809.76760834
  Solvation  Ediel_sol  =         0.00000000
  ---------------------------------------------------
  free energy    TOTEN  =      -658.23643473 eV

  energy without entropy =     -658.20329388  energy(sigma->0) =     -658.21986430


--------------------------------------------------------------------------------------------------------




--------------------------------------- Iteration      1(   5)  ---------------------------------------


     EDDAV:  cpu time      2.4439: real time      2.4455
       DOS:  cpu time      0.0005: real time      0.0005
    CHARGE:  cpu time      0.6542: real time      0.6577
    MIXING:  cpu time      0.0219: real time      0.0224
    --------------------------------------------
      LOOP:  cpu time      3.1207: real time      3.1262

 eigenvalue-minimisations  :  2640
 total energy-change (2. order) :-0.2122363E+02  (-0.2045161E+02)
 number of electron     566.9999999 magnetization      45.1363679
 augmentation part       19.6770471 magnetization      41.4866271

 Broyden mixing:
  rms(total) = 0.14301E+02    rms(broyden)= 0.14300E+02
  rms(prec ) = 0.14746E+02
  weight for this iteration     100.00

 Free energy of the ion-electron system (eV)
  ---------------------------------------------------
  alpha Z        PSCENC =      1192.14239942
  Ewald energy   TEWEN  =    126526.68828494
  -Hartree energ DENC   =   -166315.60561600
  -exchange      EXHF   =         0.00000000
  -V(xc)+E(xc)   XCENC  =      1301.73349663
  PAW double counting   =     35805.60743451   -35134.85540715
  entropy T*S    EENTRO =        -0.04499183
  eigenvalues    EBANDS =     -7864.89326962
  atomic energy  EATOM  =     43809.76760834
  Solvation  Ediel_sol  =         0.00000000
  ---------------------------------------------------
  free energy    TOTEN  =      -679.46006077 eV

  energy without entropy =     -679.41506894  energy(sigma->0) =     -679.43756485


--------------------------------------------------------------------------------------------------------




--------------------------------------- Iteration      1(   6)  ---------------------------------------


    POTLOK:  cpu time      0.0785: real time      0.0795
    SETDIJ:  cpu time      1.3381: real time      1.3384
     EDDAV:  cpu time      2.1093: real time      2.1101
       DOS:  cpu time      0.0007: real time      0.0007
    CHARGE:  cpu time      0.6396: real time      0.6398
    MIXING:  cpu time      0.0093: real time      0.0095
    --------------------------------------------
      LOOP:  cpu time      4.1753: real time      4.1779

 eigenvalue-minimisations  :  2208
 total energy-change (2. order) : 0.1356291E+03  (-0.1661660E+03)
 number of electron     567.0000001 magnetization      42.5361352
 augmentation part       40.7495046 magnetization      37.5908909

 Broyden mixing:
  rms(total) = 0.10650E+02    rms(broyden)= 0.10648E+02
  rms(prec ) = 0.11576E+02
  weight for this iteration     100.00

 eigenvalues of (default mixing * dielectric matrix)
  average eigenvalue GAMMA=   0.6236
  0.6236

 Free energy of the ion-electron system (eV)
  ---------------------------------------------------
  alpha Z        PSCENC =      1192.14239942
  Ewald energy   TEWEN  =    126526.68828494
  -Hartree energ DENC   =   -167158.67788170
  -exchange      EXHF   =         0.00000000
  -V(xc)+E(xc)   XCENC  =      1375.86884022
  PAW double counting   =     39172.56359684   -38509.78925943
  entropy T*S    EENTRO =        -0.13314058
  eigenvalues    EBANDS =     -6952.26139341
  atomic energy  EATOM  =     43809.76760834
  Solvation  Ediel_sol  =         0.00000000
  ---------------------------------------------------
  free energy    TOTEN  =      -543.83094535 eV

  energy without entropy =     -543.69780477  energy(sigma->0) =     -543.76437506


--------------------------------------------------------------------------------------------------------




--------------------------------------- Iteration      1(   7)  ---------------------------------------


    POTLOK:  cpu time      0.0745: real time      0.0754
    SETDIJ:  cpu time      1.3347: real time      1.3350
     EDDAV:  cpu time      2.2924: real time      2.2940
       DOS:  cpu time      0.0006: real time      0.0006
    CHARGE:  cpu time      0.6060: real time      0.6060
    MIXING:  cpu time      0.0046: real time      0.0046
    --------------------------------------------
      LOOP:  cpu time      4.3127: real time      4.3156

 eigenvalue-minimisations  :  2448
 total energy-change (2. order) : 0.3003671E+01  (-0.1945884E+03)
 number of electron     566.9999999 magnetization      38.2641188
 augmentation part       18.2474845 magnetization      34.2588838

 Broyden mixing:
  rms(total) = 0.89749E+01    rms(broyden)= 0.89742E+01
  rms(prec ) = 0.92081E+01
  weight for this iteration     100.00

 eigenvalues of (default mixing * dielectric matrix)
  average eigenvalue GAMMA=   0.7113
  1.0663  0.3563

 Free energy of the ion-electron system (eV)
  ---------------------------------------------------
  alpha Z        PSCENC =      1192.14239942
  Ewald energy   TEWEN  =    126526.68828494
  -Hartree energ DENC   =   -167409.75800479
  -exchange      EXHF   =         0.00000000
  -V(xc)+E(xc)   XCENC  =      1354.52520819
  PAW double counting   =     40767.33381199   -40137.27199785
  entropy T*S    EENTRO =        -0.03155315
  eigenvalues    EBANDS =     -6644.22303168
  atomic energy  EATOM  =     43809.76760834
  Solvation  Ediel_sol  =         0.00000000
  ---------------------------------------------------
  free energy    TOTEN  =      -540.82727458 eV

  energy without entropy =     -540.79572144  energy(sigma->0) =     -540.81149801


--------------------------------------------------------------------------------------------------------




--------------------------------------- Iteration      1(   8)  ---------------------------------------


    POTLOK:  cpu time      0.0751: real time      0.0759
    SETDIJ:  cpu time      1.3318: real time      1.3332
     EDDAV:  cpu time      2.3168: real time      2.3179
       DOS:  cpu time      0.0007: real time      0.0007
    CHARGE:  cpu time      0.6177: real time      0.6186
    MIXING:  cpu time      0.0044: real time      0.0044
    --------------------------------------------
      LOOP:  cpu time      4.3465: real time      4.3508

 eigenvalue-minimisations  :  2496
 total energy-change (2. order) :-0.2390729E+02  (-0.4996113E+02)
 number of electron     566.9999999 magnetization      33.2289888
 augmentation part       17.9628908 magnetization      30.5140318

 Broyden mixing:
  rms(total) = 0.58543E+01    rms(broyden)= 0.58537E+01
  rms(prec ) = 0.62231E+01
  weight for this iteration     100.00

 eigenvalues of (default mixing * dielectric matrix)
  average eigenvalue GAMMA=   0.8426
  1.6056  0.4612  0.4612

 Free energy of the ion-electron system (eV)
  ---------------------------------------------------
  alpha Z        PSCENC =      1192.14239942
  Ewald energy   TEWEN  =    126526.68828494
  -Hartree energ DENC   =   -167407.51821594
  -exchange      EXHF   =         0.00000000
  -V(xc)+E(xc)   XCENC  =      1353.00870802
  PAW double counting   =     42701.23335446   -42063.05204843
  entropy T*S    EENTRO =        -0.00213087
  eigenvalues    EBANDS =     -6677.00252881
  atomic energy  EATOM  =     43809.76760834
  Solvation  Ediel_sol  =         0.00000000
  ---------------------------------------------------
  free energy    TOTEN  =      -564.73456887 eV

  energy without entropy =     -564.73243800  energy(sigma->0) =     -564.73350343


--------------------------------------------------------------------------------------------------------




--------------------------------------- Iteration      1(   9)  ---------------------------------------


    POTLOK:  cpu time      0.0750: real time      0.0760
    SETDIJ:  cpu time      1.3320: real time      1.3322
     EDDAV:  cpu time      2.1722: real time      2.1733
       DOS:  cpu time      0.0007: real time      0.0007
    CHARGE:  cpu time      0.6194: real time      0.6204
    MIXING:  cpu time      0.0033: real time      0.0033
    --------------------------------------------
      LOOP:  cpu time      4.2025: real time      4.2058

 eigenvalue-minimisations  :  2304
 total energy-change (2. order) : 0.3540501E+02  (-0.1444959E+02)
 number of electron     567.0000000 magnetization      31.3370664
 augmentation part       18.1818648 magnetization      27.4886897

 Broyden mixing:
  rms(total) = 0.42874E+01    rms(broyden)= 0.42872E+01
  rms(prec ) = 0.48721E+01
  weight for this iteration     100.00

 eigenvalues of (default mixing * dielectric matrix)
  average eigenvalue GAMMA=   0.8182
  1.7121  0.5845  0.5845  0.3916

 Free energy of the ion-electron system (eV)
  ---------------------------------------------------
  alpha Z        PSCENC =      1192.14239942
  Ewald energy   TEWEN  =    126526.68828494
  -Hartree energ DENC   =   -167622.44486288
  -exchange      EXHF   =         0.00000000
  -V(xc)+E(xc)   XCENC  =      1366.90689356
  PAW double counting   =     43995.15310574   -43352.07942279
  entropy T*S    EENTRO =        -0.01490853
  eigenvalues    EBANDS =     -6445.44865622
  atomic energy  EATOM  =     43809.76760834
  Solvation  Ediel_sol  =         0.00000000
  ---------------------------------------------------
  free energy    TOTEN  =      -529.32955842 eV

  energy without entropy =     -529.31464989  energy(sigma->0) =     -529.32210415


--------------------------------------------------------------------------------------------------------




--------------------------------------- Iteration      1(  10)  ---------------------------------------


    POTLOK:  cpu time      0.0744: real time      0.0754
    SETDIJ:  cpu time      1.3271: real time      1.3273
     EDDAV:  cpu time      2.2472: real time      2.2487
       DOS:  cpu time      0.0005: real time      0.0006
    CHARGE:  cpu time      0.6074: real time      0.6074
    MIXING:  cpu time      0.0023: real time      0.0023
    --------------------------------------------
      LOOP:  cpu time      4.2589: real time      4.2617

 eigenvalue-minimisations  :  2400
 total energy-change (2. order) : 0.1090763E+02  (-0.1504833E+02)
 number of electron     567.0000000 magnetization      30.3274175
 augmentation part       18.3035922 magnetization      26.0414550

 Broyden mixing:
  rms(total) = 0.41770E+01    rms(broyden)= 0.41765E+01
  rms(prec ) = 0.45026E+01
  weight for this iteration     100.00

 eigenvalues of (default mixing * dielectric matrix)
  average eigenvalue GAMMA=   0.7070
  1.7103  0.6202  0.6202  0.4065  0.1780

 Free energy of the ion-electron system (eV)
  ---------------------------------------------------
  alpha Z        PSCENC =      1192.14239942
  Ewald energy   TEWEN  =    126526.68828494
  -Hartree energ DENC   =   -167684.63121465
  -exchange      EXHF   =         0.00000000
  -V(xc)+E(xc)   XCENC  =      1369.77935287
  PAW double counting   =     44158.40555030   -43510.87716327
  entropy T*S    EENTRO =        -0.02821432
  eigenvalues    EBANDS =     -6379.66852706
  atomic energy  EATOM  =     43809.76760834
  Solvation  Ediel_sol  =         0.00000000
  ---------------------------------------------------
  free energy    TOTEN  =      -518.42192344 eV

  energy without entropy =     -518.39370912  energy(sigma->0) =     -518.40781628


--------------------------------------------------------------------------------------------------------




--------------------------------------- Iteration      1(  11)  ---------------------------------------


    POTLOK:  cpu time      0.0744: real time      0.0755
    SETDIJ:  cpu time      1.3283: real time      1.3297
     EDDAV:  cpu time      2.3203: real time      2.3218
       DOS:  cpu time      0.0007: real time      0.0007
    CHARGE:  cpu time      0.6204: real time      0.6205
    MIXING:  cpu time      0.0050: real time      0.0050
    --------------------------------------------
      LOOP:  cpu time      4.3490: real time      4.3531

 eigenvalue-minimisations  :  2496
 total energy-change (2. order) : 0.6333320E+01  (-0.2741496E+01)
 number of electron     567.0000000 magnetization      29.2147983
 augmentation part       16.6086093 magnetization      25.3395289

 Broyden mixing:
  rms(total) = 0.28614E+01    rms(broyden)= 0.28611E+01
  rms(prec ) = 0.30535E+01
  weight for this iteration     100.00

 eigenvalues of (default mixing * dielectric matrix)
  average eigenvalue GAMMA=   0.6470
  1.6429  0.6611  0.6611  0.3973  0.2598  0.2598

 Free energy of the ion-electron system (eV)
  ---------------------------------------------------
  alpha Z        PSCENC =      1192.14239942
  Ewald energy   TEWEN  =    126526.68828494
  -Hartree energ DENC   =   -167675.21914571
  -exchange      EXHF   =         0.00000000
  -V(xc)+E(xc)   XCENC  =      1369.29647440
  PAW double counting   =     44206.51003069   -43554.83014624
  entropy T*S    EENTRO =        -0.03720120
  eigenvalues    EBANDS =     -6386.40690771
  atomic energy  EATOM  =     43809.76760834
  Solvation  Ediel_sol  =         0.00000000
  ---------------------------------------------------
  free energy    TOTEN  =      -512.08860307 eV

  energy without entropy =     -512.05140187  energy(sigma->0) =     -512.07000247


--------------------------------------------------------------------------------------------------------




--------------------------------------- Iteration      1(  12)  ---------------------------------------


    POTLOK:  cpu time      0.0756: real time      0.0769
    SETDIJ:  cpu time      1.3206: real time      1.3208
     EDDAV:  cpu time      2.0411: real time      2.0428
       DOS:  cpu time      0.0007: real time      0.0007
    CHARGE:  cpu time      0.6168: real time      0.6177
    MIXING:  cpu time      0.0037: real time      0.0037
    --------------------------------------------
      LOOP:  cpu time      4.0585: real time      4.0626

 eigenvalue-minimisations  :  2160
 total energy-change (2. order) : 0.1707058E+01  (-0.2133781E+01)
 number of electron     567.0000000 magnetization      28.0172508
 augmentation part       16.6658636 magnetization      23.8968550

 Broyden mixing:
  rms(total) = 0.20516E+01    rms(broyden)= 0.20514E+01
  rms(prec ) = 0.22781E+01
  weight for this iteration     100.00

 eigenvalues of (default mixing * dielectric matrix)
  average eigenvalue GAMMA=   0.6192
  1.5371  0.7202  0.7202  0.3680  0.3680  0.3763  0.2445

 Free energy of the ion-electron system (eV)
  ---------------------------------------------------
  alpha Z        PSCENC =      1192.14239942
  Ewald energy   TEWEN  =    126526.68828494
  -Hartree energ DENC   =   -167679.68033930
  -exchange      EXHF   =         0.00000000
  -V(xc)+E(xc)   XCENC  =      1368.29686744
  PAW double counting   =     44126.13057652   -43468.38095133
  entropy T*S    EENTRO =        -0.00779905
  eigenvalues    EBANDS =     -6385.33819191
  atomic energy  EATOM  =     43809.76760834
  Solvation  Ediel_sol  =         0.00000000
  ---------------------------------------------------
  free energy    TOTEN  =      -510.38154493 eV

  energy without entropy =     -510.37374588  energy(sigma->0) =     -510.37764541


--------------------------------------------------------------------------------------------------------




--------------------------------------- Iteration      1(  13)  ---------------------------------------


    POTLOK:  cpu time      0.0779: real time      0.0789
    SETDIJ:  cpu time      1.3333: real time      1.3335
     EDDAV:  cpu time      2.5515: real time      2.5525
       DOS:  cpu time      0.0006: real time      0.0006
    CHARGE:  cpu time      0.6048: real time      0.6052
    MIXING:  cpu time      0.0051: real time      0.0051
    --------------------------------------------
      LOOP:  cpu time      4.5734: real time      4.5758

 eigenvalue-minimisations  :  2784
 total energy-change (2. order) : 0.2544441E+01  (-0.1105305E+01)
 number of electron     567.0000000 magnetization      27.3302475
 augmentation part       16.6437723 magnetization      23.1126266

 Broyden mixing:
  rms(total) = 0.18891E+01    rms(broyden)= 0.18885E+01
  rms(prec ) = 0.19832E+01
  weight for this iteration     100.00

 eigenvalues of (default mixing * dielectric matrix)
  average eigenvalue GAMMA=   0.5745
  1.5010  0.7201  0.7201  0.4288  0.4288  0.3835  0.2069  0.2069

 Free energy of the ion-electron system (eV)
  ---------------------------------------------------
  alpha Z        PSCENC =      1192.14239942
  Ewald energy   TEWEN  =    126526.68828494
  -Hartree energ DENC   =   -167663.31456663
  -exchange      EXHF   =         0.00000000
  -V(xc)+E(xc)   XCENC  =      1367.17757664
  PAW double counting   =     44071.35840212   -43407.89467853
  entropy T*S    EENTRO =        -0.01238807
  eigenvalues    EBANDS =     -6403.74974181
  atomic energy  EATOM  =     43809.76760834
  Solvation  Ediel_sol  =         0.00000000
  ---------------------------------------------------
  free energy    TOTEN  =      -507.83710358 eV

  energy without entropy =     -507.82471551  energy(sigma->0) =     -507.83090955


--------------------------------------------------------------------------------------------------------




--------------------------------------- Iteration      1(  14)  ---------------------------------------


    POTLOK:  cpu time      0.0834: real time      0.0843
    SETDIJ:  cpu time      1.3257: real time      1.3267
     EDDAV:  cpu time      2.2342: real time      2.2355
       DOS:  cpu time      0.0006: real time      0.0006
    CHARGE:  cpu time      0.6487: real time      0.6487
    MIXING:  cpu time      0.0053: real time      0.0053
    --------------------------------------------
      LOOP:  cpu time      4.2978: real time      4.3011

 eigenvalue-minimisations  :  2400
 total energy-change (2. order) :-0.7018645E-01  (-0.2152042E+00)
 number of electron     567.0000000 magnetization      26.1489480
 augmentation part       16.6243362 magnetization      21.9497410

 Broyden mixing:
  rms(total) = 0.16561E+01    rms(broyden)= 0.16560E+01
  rms(prec ) = 0.17422E+01
  weight for this iteration     100.00

 eigenvalues of (default mixing * dielectric matrix)
  average eigenvalue GAMMA=   0.6066
  1.5075  0.6433  0.6433  0.7005  0.7005  0.3788  0.3081  0.3081  0.2692

 Free energy of the ion-electron system (eV)
  ---------------------------------------------------
  alpha Z        PSCENC =      1192.14239942
  Ewald energy   TEWEN  =    126526.68828494
  -Hartree energ DENC   =   -167663.70749936
  -exchange      EXHF   =         0.00000000
  -V(xc)+E(xc)   XCENC  =      1366.44072061
  PAW double counting   =     44065.57899842   -43399.30380197
  entropy T*S    EENTRO =        -0.00146788
  eigenvalues    EBANDS =     -6405.51253256
  atomic energy  EATOM  =     43809.76760834
  Solvation  Ediel_sol  =         0.00000000
  ---------------------------------------------------
  free energy    TOTEN  =      -507.90729003 eV

[...]
    190      -4.0388      1.00000
    191      -3.9969      1.00000
    192      -3.9807      1.00000
    193      -3.9339      1.00000
    194      -3.9202      1.00000
    195      -3.8959      1.00000
    196      -3.8885      1.00000
    197      -3.8511      1.00000
    198      -3.8448      1.00000
    199      -3.8092      1.00000
    200      -3.7952      1.00000
    201      -3.7586      1.00000
    202      -3.7184      1.00000
    203      -3.7093      1.00000
    204      -3.6836      1.00000
    205      -3.6600      1.00000
    206      -3.6208      1.00000
    207      -3.5824      1.00000
    208      -3.5736      1.00000
    209      -3.5641      1.00000
    210      -3.5162      1.00000
    211      -3.4920      1.00000
    212      -3.4673      1.00000
    213      -3.4151      1.00000
    214      -3.3996      1.00000
    215      -3.3858      1.00000
    216      -3.3622      1.00000
    217      -3.3088      1.00000
    218      -3.2919      1.00000
    219      -3.2663      1.00000
    220      -3.2229      1.00000
    221      -3.2182      1.00000
    222      -3.1628      1.00000
    223      -3.1359      1.00000
    224      -3.1218      1.00000
    225      -3.0926      1.00000
    226      -3.0728      1.00000
    227      -3.0564      1.00000
    228      -3.0051      1.00000
    229      -2.9819      1.00000
    230      -2.9497      1.00000
    231      -2.9391      1.00000
    232      -2.8826      1.00000
    233      -2.8684      1.00000
    234      -2.8488      1.00000
    235      -2.8272      1.00000
    236      -2.7864      1.00000
    237      -2.6519      1.00000
    238      -2.6450      1.00000
    239      -2.6381      1.00000
    240      -2.6244      1.00000
    241      -2.6155      1.00000
    242      -2.5749      1.00000
    243      -2.5618      1.00000
    244      -2.5376      1.00000
    245      -2.5292      1.00000
    246      -2.4798      1.00000
    247      -2.4671      1.00000
    248      -2.4636      1.00000
    249      -2.4575      1.00000
    250      -2.4328      1.00000
    251      -2.4228      1.00000
    252      -2.4194      1.00000
    253      -2.4070      1.00000
    254      -2.3272      1.00000
    255      -2.3254      1.00000
    256      -2.2481      1.00000
    257      -2.2299      1.00000
    258      -2.1689      1.00000
    259      -2.1617      1.00000
    260      -2.1480      1.00000
    261      -2.1438      1.00000
    262      -2.1177      1.00000
    263      -2.0987      1.00000
    264      -2.0831      1.00000
    265      -2.0282      1.00000
    266      -1.9851      1.00000
    267      -1.8311      1.00000
    268      -1.7989      1.00000
    269      -1.7617      1.00000
    270      -1.7145      1.00000
    271      -1.7107      1.00000
    272      -1.6758      1.00000
    273      -1.5751      1.00000
    274      -1.4988      1.00000
    275      -1.4155      1.00000
    276      -1.3744      1.00000
    277      -1.2922      1.00000
    278      -1.2193      1.00000
    279      -1.2036      1.00000
    280      -0.8173      1.00000
    281      -0.5101      0.00003
    282      -0.3601      0.00000
    283      -0.2701      0.00000
    284      -0.1723      0.00000
    285      -0.0101      0.00000
    286       0.0493      0.00000
    287       0.1047      0.00000
    288       0.1342      0.00000
    289       0.1598      0.00000
    290       0.1723      0.00000
    291       0.2047      0.00000
    292       0.2108      0.00000
    293       0.2224      0.00000
    294       0.2276      0.00000
    295       0.2352      0.00000
    296       0.2517      0.00000
    297       0.2621      0.00000
    298       0.2719      0.00000
    299       0.2834      0.00000
    300       0.2917      0.00000
    301       0.3069      0.00000
    302       0.3086      0.00000
    303       0.3146      0.00000
    304       0.3218      0.00000
    305       0.3291      0.00000
    306       0.3358      0.00000
    307       0.3375      0.00000
    308       0.3412      0.00000
    309       0.3507      0.00000
    310       0.3525      0.00000
    311       0.3602      0.00000
    312       0.3695      0.00000
    313       0.3738      0.00000
    314       0.3806      0.00000
    315       0.3860      0.00000
    316       0.3915      0.00000
    317       0.3936      0.00000
    318       0.3981      0.00000
    319       0.3999      0.00000
    320       0.4022      0.00000
    321       0.4102      0.00000
    322       0.4192      0.00000
    323       0.4274      0.00000
    324       0.4362      0.00000
    325       0.4440      0.00000
    326       0.4449      0.00000
    327       0.4530      0.00000
    328       0.4580      0.00000
    329       0.4628      0.00000
    330       0.4726      0.00000
    331       0.4793      0.00000
    332       0.4857      0.00000
    333       0.4896      0.00000
    334       0.4925      0.00000
    335       0.4947      0.00000
    336       0.5052      0.00000
    337       0.5087      0.00000
    338       0.5099      0.00000
    339       0.5157      0.00000
    340       0.5215      0.00000
    341       0.5315      0.00000
    342       0.5378      0.00000
    343       0.5399      0.00000
    344       0.5407      0.00000
    345       0.5430      0.00000
    346       0.5471      0.00000
    347       0.5505      0.00000
    348       0.5545      0.00000
    349       0.5590      0.00000
    350       0.5607      0.00000
    351       0.5649      0.00000
    352       0.5651      0.00000
    353       0.5692      0.00000
    354       0.5737      0.00000
    355       0.5760      0.00000
    356       0.5786      0.00000
    357       0.5852      0.00000
    358       0.5886      0.00000
    359       0.5963      0.00000
    360       0.6000      0.00000
    361       0.6063      0.00000
    362       0.6102      0.00000
    363       0.6124      0.00000
    364       0.6168      0.00000
    365       0.6242      0.00000
    366       0.6273      0.00000
    367       0.6329      0.00000
    368       0.6375      0.00000
    369       0.6423      0.00000
    370       0.6491      0.00000
    371       0.6641      0.00000
    372       0.6689      0.00000
    373       0.6789      0.00000
    374       0.6908      0.00000
    375       0.7011      0.00000
    376       0.7029      0.00000
    377       0.7064      0.00000
    378       0.7090      0.00000
    379       0.7115      0.00000
    380       0.7182      0.00000
    381       0.7204      0.00000
    382       0.7231      0.00000
    383       0.7330      0.00000
    384       0.7466      0.00000


--------------------------------------------------------------------------------------------------------


 soft charge-density along one line, spin component           1
         0         1         2         3         4         5         6         7         8         9
 total charge-density along one line
 
 soft charge-density along one line, spin component           2
         0         1         2         3         4         5         6         7         8         9
 total charge-density along one line
 
 pseudopotential strength for first ion, spin component:           1
 24.667 -18.888   0.026   0.051  -0.039  -0.017  -0.032   0.026
-18.888   9.944  -0.012  -0.024   0.018   0.009   0.019  -0.014
  0.026  -0.012  13.869  -0.002  -0.006  -6.340   0.004   0.006
  0.051  -0.024  -0.002  13.861   0.003   0.004  -6.326  -0.006
 -0.039   0.018  -0.006   0.003  13.877   0.006  -0.006  -6.348
 -0.017   0.009  -6.340   0.004   0.006  13.912  -0.005  -0.005
 -0.032   0.019   0.004  -6.326  -0.006  -0.005  13.897   0.007
  0.026  -0.014   0.006  -0.006  -6.348  -0.005   0.007  13.919
 -0.003   0.001  -0.012   0.000   0.009   0.006   0.000  -0.005
 -0.002   0.000   0.015   0.008   0.000  -0.008  -0.004   0.000
 -0.005   0.001  -0.004   0.020   0.006   0.002  -0.008  -0.003
  0.003  -0.000   0.000  -0.013   0.014   0.000   0.007  -0.008
  0.002  -0.001  -0.007  -0.000  -0.012   0.004  -0.000   0.006
  0.007  -0.003   0.023  -0.001  -0.017  -0.013  -0.000   0.010
  0.004  -0.001  -0.029  -0.016  -0.001   0.016   0.009  -0.000
  0.011  -0.003   0.008  -0.038  -0.013  -0.005   0.018   0.007
 -0.007   0.001  -0.001   0.025  -0.028  -0.000  -0.014   0.017
 -0.005   0.002   0.014   0.000   0.023  -0.008   0.000  -0.013
 -0.000   0.000   0.001  -0.010  -0.002  -0.000   0.008   0.000
 -0.001  -0.000   0.003   0.000  -0.015  -0.003  -0.002   0.011
 -0.001   0.000  -0.007  -0.003   0.001   0.004   0.002  -0.001
 -0.002  -0.000   0.002   0.001  -0.002  -0.001  -0.003   0.002
  0.002  -0.001   0.001   0.005  -0.009  -0.001  -0.003   0.005
  0.000   0.000  -0.010  -0.000   0.003   0.008   0.001  -0.003
 -0.000   0.000  -0.001   0.000  -0.000   0.001  -0.000   0.001
 -0.000   0.000   0.001  -0.010  -0.002  -0.000   0.007   0.000
 -0.001  -0.000   0.003   0.000  -0.014  -0.003  -0.002   0.011
 -0.001   0.000  -0.007  -0.003   0.001   0.004   0.002  -0.001
 -0.002  -0.000   0.002   0.001  -0.002  -0.001  -0.002   0.002
  0.002  -0.001   0.001   0.005  -0.009  -0.001  -0.003   0.005
  0.000   0.000  -0.010  -0.000   0.003   0.007   0.001  -0.003
 -0.000   0.000  -0.001   0.000  -0.000   0.001  -0.000   0.001
 pseudopotential strength for first ion, spin component:           2
 24.675 -18.895   0.026   0.051  -0.039  -0.017  -0.032   0.025
-18.895   9.949  -0.012  -0.025   0.018   0.009   0.019  -0.014
  0.026  -0.012  13.876  -0.003  -0.006  -6.345   0.004   0.006
  0.051  -0.025  -0.003  13.867   0.004   0.004  -6.330  -0.007
 -0.039   0.018  -0.006   0.004  13.883   0.006  -0.007  -6.353
 -0.017   0.009  -6.345   0.004   0.006  13.915  -0.005  -0.005
 -0.032   0.019   0.004  -6.330  -0.007  -0.005  13.901   0.007
  0.025  -0.014   0.006  -0.007  -6.353  -0.005   0.007  13.923
 -0.004   0.001  -0.012   0.000   0.008   0.006   0.000  -0.005
 -0.002   0.000   0.015   0.008   0.000  -0.008  -0.004   0.000
 -0.005   0.001  -0.004   0.020   0.007   0.002  -0.008  -0.004
  0.003  -0.001   0.000  -0.013   0.014   0.000   0.007  -0.008
  0.002  -0.001  -0.008  -0.000  -0.012   0.004  -0.000   0.006
  0.008  -0.003   0.023  -0.001  -0.016  -0.013  -0.000   0.010
  0.005  -0.001  -0.029  -0.016  -0.001   0.016   0.009  -0.000
  0.011  -0.003   0.009  -0.037  -0.013  -0.005   0.017   0.007
 -0.007   0.001  -0.001   0.025  -0.028  -0.000  -0.014   0.017
 -0.005   0.002   0.014   0.000   0.023  -0.008   0.000  -0.013
  0.001   0.000   0.002  -0.010  -0.003  -0.001   0.007   0.001
 -0.001  -0.000   0.003  -0.000  -0.014  -0.002  -0.001   0.010
 -0.001   0.000  -0.008  -0.003   0.000   0.005   0.002  -0.000
 -0.002  -0.000   0.001   0.002  -0.002  -0.001  -0.003   0.002
  0.002  -0.000   0.000   0.005  -0.009  -0.000  -0.003   0.005
  0.001   0.000  -0.010   0.000   0.003   0.007   0.000  -0.002
 -0.000   0.000  -0.002  -0.000  -0.001   0.003   0.000   0.001
  0.001   0.000   0.002  -0.010  -0.003  -0.001   0.007   0.001
 -0.001  -0.000   0.003  -0.000  -0.014  -0.002  -0.001   0.010
 -0.001   0.000  -0.008  -0.003   0.000   0.005   0.002  -0.000
 -0.001  -0.000   0.001   0.002  -0.002  -0.001  -0.003   0.002
  0.002  -0.000   0.000   0.005  -0.009  -0.000  -0.003   0.005
  0.001   0.000  -0.010   0.000   0.003   0.007   0.000  -0.002
 -0.000   0.000  -0.001  -0.000  -0.000   0.003   0.000   0.001
 total augmentation occupancy for first ion, spin component:           1
  1.871  -0.360   0.003   0.005  -0.004   0.000   0.002  -0.001   0.001   0.001   0.004  -0.001  -0.000  -0.001  -0.001  -0.001
 -0.360   0.957   0.023   0.068  -0.034  -0.007  -0.020   0.010  -0.048  -0.021  -0.059   0.033   0.029  -0.008  -0.003  -0.010
  0.003   0.023   2.051  -0.001  -0.001  -0.075   0.001   0.001  -0.017   0.009  -0.010   0.008  -0.015  -0.000  -0.001  -0.000
  0.005   0.068  -0.001   2.042   0.001   0.001  -0.069  -0.001   0.008   0.006   0.074  -0.008  -0.005   0.001  -0.000   0.005
 -0.004  -0.034  -0.001   0.001   2.053   0.001  -0.001  -0.077   0.008   0.008   0.015  -0.003  -0.017  -0.001   0.001   0.000
  0.000  -0.007  -0.075   0.001   0.001   0.016  -0.000  -0.001   0.008  -0.002   0.005  -0.004   0.006   0.001   0.000   0.001
  0.002  -0.020   0.001  -0.069  -0.001  -0.000   0.013   0.001  -0.004  -0.002  -0.030   0.002   0.003  -0.001  -0.000  -0.005
 -0.001   0.010   0.001  -0.001  -0.077  -0.001   0.001   0.017  -0.005  -0.004  -0.008   0.004   0.008  -0.001  -0.001  -0.001
  0.001  -0.048  -0.017   0.008   0.008   0.008  -0.004  -0.005   0.607   0.022   0.043  -0.218  -0.042   0.103   0.004   0.008
  0.001  -0.021   0.009   0.006   0.008  -0.002  -0.002  -0.004   0.022   0.425   0.002   0.001  -0.190   0.004   0.070   0.000
  0.004  -0.059  -0.010   0.074   0.015   0.005  -0.030  -0.008   0.043   0.002   0.638  -0.004  -0.026   0.009   0.000   0.108
 -0.001   0.033   0.008  -0.008  -0.003  -0.004   0.002   0.004  -0.218   0.001  -0.004   0.426   0.022  -0.041   0.000  -0.001
 -0.000   0.029  -0.015  -0.005  -0.017   0.006   0.003   0.008  -0.042  -0.190  -0.026   0.022   0.558  -0.009  -0.036  -0.005
 -0.001  -0.008  -0.000   0.001  -0.001   0.001  -0.001  -0.001   0.103   0.004   0.009  -0.041  -0.009   0.019   0.001   0.002
 -0.001  -0.003  -0.001  -0.000   0.001   0.000  -0.000  -0.001   0.004   0.070   0.000   0.000  -0.036   0.001   0.012   0.000
 -0.001  -0.010  -0.000   0.005   0.000   0.001  -0.005  -0.001   0.008   0.000   0.108  -0.001  -0.005   0.002   0.000   0.020
  0.001   0.005   0.001   0.001  -0.002  -0.001   0.000   0.001  -0.041   0.000  -0.001   0.070   0.004  -0.008   0.000  -0.000
  0.001   0.005  -0.001  -0.000  -0.000   0.001   0.000   0.001  -0.009  -0.036  -0.005   0.004   0.093  -0.002  -0.007  -0.001
  0.010  -0.038   0.031  -0.165  -0.050  -0.025   0.096   0.042  -0.323  -0.054   0.008   0.074   0.206  -0.059  -0.012   0.007
 -0.005   0.131   0.025  -0.006  -0.226  -0.012   0.000   0.130  -0.058  -0.061  -0.101   0.107   0.003  -0.013  -0.008  -0.020
 -0.002  -0.082  -0.116  -0.026   0.016   0.048   0.004  -0.015   0.092   0.026   0.034  -0.047   0.114   0.018   0.003   0.005
 -0.020   0.461   0.008   0.020  -0.012  -0.007  -0.037   0.013  -0.149  -0.056   0.643   0.081   0.099  -0.029  -0.012   0.115
  0.004   0.143   0.015   0.043  -0.136  -0.015  -0.004   0.066   0.004  -0.047  -0.049   0.079   0.091  -0.001  -0.010  -0.007
  0.003  -0.093  -0.195   0.006   0.024   0.116  -0.001  -0.012   0.003   0.015   0.064  -0.062  -0.048   0.002   0.006   0.012
 -0.000  -0.001  -0.004  -0.000   0.001   0.004  -0.000   0.002  -0.005  -0.092  -0.000  -0.060  -0.008   0.001  -0.014   0.000
 -0.010   0.046  -0.044   0.209   0.070   0.030  -0.113  -0.050   0.370   0.060   0.001  -0.082  -0.237   0.067   0.013  -0.007
  0.005  -0.155  -0.032   0.010   0.290   0.014  -0.002  -0.154   0.066   0.077   0.112  -0.125   0.002   0.015   0.010   0.022
  0.002   0.093   0.144   0.029  -0.021  -0.058  -0.004   0.017  -0.095  -0.023  -0.038   0.052  -0.118  -0.019  -0.003  -0.006
  0.023  -0.529  -0.012  -0.030   0.019   0.009   0.041  -0.015   0.166   0.063  -0.731  -0.091  -0.112   0.033   0.013  -0.129
 -0.004  -0.162  -0.021  -0.048   0.170   0.017   0.005  -0.079  -0.003   0.052   0.055  -0.083  -0.095   0.001   0.011   0.008
 -0.003   0.109   0.250  -0.008  -0.031  -0.137   0.002   0.014   0.003  -0.012  -0.072   0.077   0.061  -0.002  -0.006  -0.013
  0.000   0.001   0.006   0.000   0.000  -0.005  -0.000  -0.002   0.003   0.105   0.000   0.069   0.005  -0.001   0.016  -0.000
 total augmentation occupancy for first ion, spin component:           2
  0.000   0.000  -0.000  -0.000   0.000  -0.000  -0.000   0.000  -0.000   0.000   0.000  -0.000   0.000  -0.000  -0.000  -0.000
  0.000   0.000  -0.001  -0.001   0.001   0.000   0.000  -0.000  -0.001   0.001  -0.001  -0.003  -0.000  -0.000   0.000  -0.000
 -0.000  -0.001   0.000   0.000  -0.000   0.000  -0.000   0.000   0.000   0.000  -0.000   0.000   0.000  -0.000   0.000  -0.000
 -0.000  -0.001   0.000   0.000  -0.000  -0.000  -0.000   0.000   0.000  -0.001   0.001   0.001   0.000  -0.000  -0.000  -0.000
  0.000   0.001  -0.000  -0.000   0.000   0.000   0.000  -0.000  -0.000   0.000   0.000  -0.000  -0.000  -0.000  -0.000   0.000
 -0.000   0.000   0.000  -0.000   0.000  -0.000   0.000  -0.000  -0.000  -0.000   0.000  -0.000  -0.000  -0.000  -0.000   0.000
 -0.000   0.000  -0.000  -0.000   0.000   0.000  -0.000  -0.000  -0.000   0.000  -0.000  -0.001  -0.000  -0.000   0.000  -0.000
  0.000  -0.000   0.000   0.000  -0.000  -0.000  -0.000   0.000   0.000  -0.000  -0.000   0.000   0.000   0.000  -0.000  -0.000
 -0.000  -0.001   0.000   0.000  -0.000  -0.000  -0.000   0.000  -0.001  -0.001  -0.001  -0.000  -0.001  -0.000  -0.000  -0.000
  0.000   0.001   0.000  -0.001   0.000  -0.000   0.000  -0.000  -0.001  -0.003   0.001  -0.002  -0.001  -0.000  -0.000   0.000
  0.000  -0.001  -0.000   0.001   0.000   0.000  -0.000  -0.000  -0.001   0.001  -0.003  -0.001   0.000  -0.000   0.000  -0.000
 -0.000  -0.003   0.000   0.001  -0.000  -0.000  -0.001   0.000  -0.000  -0.002  -0.001   0.000  -0.000  -0.000  -0.000  -0.000
  0.000  -0.000   0.000   0.000  -0.000  -0.000  -0.000   0.000  -0.001  -0.001   0.000  -0.000  -0.002  -0.000  -0.000   0.000
 -0.000  -0.000  -0.000  -0.000  -0.000  -0.000  -0.000   0.000  -0.000  -0.000  -0.000  -0.000  -0.000   0.000  -0.000  -0.000
 -0.000   0.000   0.000  -0.000  -0.000  -0.000   0.000  -0.000  -0.000  -0.000   0.000  -0.000  -0.000  -0.000   0.000  -0.000
 -0.000  -0.000  -0.000  -0.000   0.000   0.000  -0.000  -0.000  -0.000   0.000  -0.000  -0.000   0.000  -0.000  -0.000  -0.000
  0.000  -0.000  -0.000   0.000   0.000  -0.000  -0.000   0.000  -0.000  -0.000  -0.000   0.000   0.000  -0.000  -0.000   0.000
 -0.000  -0.000  -0.000   0.000  -0.000   0.000  -0.000   0.000  -0.000  -0.000   0.000   0.000   0.000   0.000  -0.000   0.000
 -0.000   0.002  -0.000   0.001   0.001  -0.000  -0.000  -0.000  -0.000  -0.000   0.001  -0.001  -0.000  -0.000   0.000  -0.000
  0.000   0.002   0.000   0.001  -0.000   0.000   0.000   0.000  -0.002  -0.001   0.004   0.001  -0.003  -0.000  -0.000   0.000
 -0.000   0.001  -0.001  -0.001   0.001   0.001   0.000   0.000  -0.003   0.003   0.001   0.000  -0.005  -0.000  -0.000   0.000
  0.000   0.006   0.000  -0.000  -0.000  -0.000   0.001  -0.000   0.002   0.000   0.004  -0.000  -0.001   0.000   0.000   0.000
  0.000   0.001   0.000   0.001  -0.001   0.000   0.000   0.000  -0.000   0.001  -0.001   0.002  -0.003  -0.000  -0.000  -0.000
 -0.000  -0.001  -0.000  -0.001  -0.000   0.000  -0.000   0.000  -0.003  -0.002  -0.002  -0.002  -0.005  -0.000  -0.000  -0.000
 -0.000  -0.001   0.000  -0.000   0.000  -0.000  -0.000   0.000   0.001   0.000  -0.000   0.001   0.001   0.000   0.000   0.000
  0.000  -0.004   0.001   0.001  -0.002  -0.000  -0.001   0.000   0.002  -0.001  -0.003   0.002   0.000   0.000  -0.000   0.000
 -0.000  -0.002  -0.000  -0.001   0.001  -0.000  -0.000  -0.000   0.002   0.001  -0.005  -0.002   0.002   0.000   0.000  -0.000
  0.000  -0.001   0.000   0.001  -0.001  -0.001  -0.000  -0.000   0.001  -0.006  -0.001  -0.002   0.001   0.000  -0.000  -0.000
  0.000  -0.006  -0.000   0.001   0.000   0.000  -0.001  -0.000  -0.003   0.000  -0.005  -0.000   0.001  -0.000  -0.000  -0.000
 -0.000  -0.002  -0.001  -0.001   0.001  -0.000  -0.000  -0.000  -0.001  -0.002   0.001  -0.003   0.001   0.000   0.000   0.000
  0.000   0.001   0.000   0.001  -0.000  -0.000   0.000   0.000   0.002   0.000   0.003   0.002   0.004   0.000   0.000   0.000
  0.000   0.001  -0.001  -0.000  -0.000   0.000   0.000  -0.000   0.000   0.001   0.000  -0.000   0.000  -0.000  -0.000   0.000


------------------------ aborting loop because EDIFF is reached ----------------------------------------


    CHARGE:  cpu time      0.6153: real time      0.6153
    FORLOC:  cpu time      0.0083: real time      0.0083
    FORNL :  cpu time      2.2948: real time      2.2965
