 running  192 mpi-ranks, on    1 nodes
 distrk:  each k-point on  192 cores,    1 groups
 distr:  one band on    4 cores,   48 groups
 vasp.6.4.3 19Mar24 (build Mar 01 2025 18:03:59) gamma-only                     
  
 POSCAR found type information on POSCAR CeO Ir
 POSCAR found :  3 types and      73 ions
 Reading from existing POTCAR
 scaLAPACK will be used
 -----------------------------------------------------------------------------
|                                                                             |
|           W    W    AA    RRRRR   N    N  II  N    N   GGGG   !!!           |
|           W    W   A  A   R    R  NN   N  II  NN   N  G    G  !!!           |
|           W    W  A    A  R    R  N N  N  II  N N  N  G       !!!           |
|           W WW W  AAAAAA  RRRRR   N  N N  II  N  N N  G  GGG   !            |
|           WW  WW  A    A  R   R   N   NN  II  N   NN  G    G                |
|           W    W  A    A  R    R  N    N  II  N    N   GGGG   !!!           |
|                                                                             |
|     For optimal performance we recommend to set                             |
|       NCORE = 2 up to number-of-cores-per-socket                            |
|     NCORE specifies how many cores store one orbital (NPAR=cpu/NCORE).      |
|     This setting can greatly improve the performance of VASP for DFT.       |
|     The default, NCORE=1 might be grossly inefficient on modern             |
|     multi-core architectures or massively parallel machines. Do your        |
|     own testing! More info at https://www.vasp.at/wiki/index.php/NCORE      |
|     Unfortunately you need to use the default for GW and RPA                |
|     calculations (for HF NCORE is supported but not extensively tested      |
|     yet).                                                                   |
|                                                                             |
 -----------------------------------------------------------------------------

 Reading from existing POTCAR
 -----------------------------------------------------------------------------
|                                                                             |
|               ----> ADVICE to this user running VASP <----                  |
|                                                                             |
|     You have a (more or less) 'large supercell' and for larger cells it     |
|     might be more efficient to use real-space projection operators.         |
|     Therefore, try LREAL= Auto in the INCAR file.                           |
|     Mind: For very accurate calculation, you might also keep the            |
|     reciprocal projection scheme (i.e. LREAL=.FALSE.).                      |
|                                                                             |
 -----------------------------------------------------------------------------

 LDA part: xc-table for (Slater+PW92), standard interpolation
 POSCAR, INCAR and KPOINTS ok, starting setup
 FFT: planning ... GRIDC
 FFT: planning ... GRID_SOFT
 FFT: planning ... GRID
 WAVECAR not read
 WARNING: random wavefunctions but no delay for mixing, default for NELMDL
 entering main loop
       N       E                     dE             d eps       ncg     rms          rms(c)
DAV:   1     0.100668697012E+05    0.10067E+05   -0.25906E+05  1536   0.162E+03
DAV:   2     0.281085679724E+04   -0.72560E+04   -0.64406E+04  1872   0.430E+02
DAV:   3    -0.245820843778E+03   -0.30567E+04   -0.29624E+04  2304   0.252E+02
DAV:   4    -0.658236434727E+03   -0.41242E+03   -0.40395E+03  2256   0.969E+01
DAV:   5    -0.679460060769E+03   -0.21224E+02   -0.20452E+02  2640   0.260E+01    0.143E+02
DAV:   6    -0.543830945347E+03    0.13563E+03   -0.16617E+03  2208   0.647E+01    0.107E+02
DAV:   7    -0.540827274584E+03    0.30037E+01   -0.19459E+03  2448   0.124E+02    0.897E+01
DAV:   8    -0.564734568869E+03   -0.23907E+02   -0.49961E+02  2496   0.468E+01    0.585E+01
DAV:   9    -0.529329558416E+03    0.35405E+02   -0.14450E+02  2304   0.239E+01    0.429E+01
DAV:  10    -0.518421923436E+03    0.10908E+02   -0.15048E+02  2400   0.186E+01    0.418E+01
DAV:  11    -0.512088603069E+03    0.63333E+01   -0.27415E+01  2496   0.896E+00    0.286E+01
DAV:  12    -0.510381544934E+03    0.17071E+01   -0.21338E+01  2160   0.634E+00    0.205E+01
DAV:  13    -0.507837103582E+03    0.25444E+01   -0.11053E+01  2784   0.623E+00    0.189E+01
DAV:  14    -0.507907290029E+03   -0.70186E-01   -0.21520E+00  2400   0.303E+00    0.166E+01
DAV:  15    -0.508859496805E+03   -0.95221E+00   -0.34293E+00  2496   0.363E+00    0.147E+01
DAV:  16    -0.511261392214E+03   -0.24019E+01   -0.59574E+00  2496   0.599E+00    0.108E+01
DAV:  17    -0.513223418154E+03   -0.19620E+01   -0.29856E+00  2640   0.364E+00    0.901E+00
DAV:  18    -0.518078158846E+03   -0.48547E+01   -0.38322E+00  2544   0.402E+00    0.900E+00
DAV:  19    -0.520225831476E+03   -0.21477E+01   -0.24920E+00  2448   0.332E+00    0.103E+01
DAV:  20    -0.520792601007E+03   -0.56677E+00   -0.69527E-01  2640   0.145E+00    0.980E+00
DAV:  21    -0.521434166801E+03   -0.64157E+00   -0.25274E-01  2592   0.106E+00    0.898E+00
DAV:  22    -0.523418503095E+03   -0.19843E+01   -0.25439E+00  2304   0.328E+00    0.573E+00
DAV:  23    -0.525748027676E+03   -0.23295E+01   -0.29040E+00  2352   0.356E+00    0.399E+00
DAV:  24    -0.527220072501E+03   -0.14720E+01   -0.96401E-01  2448   0.169E+00    0.316E+00
DAV:  25    -0.528314189829E+03   -0.10941E+01   -0.52310E-01  2496   0.115E+00    0.251E+00
DAV:  26    -0.529178788015E+03   -0.86460E+00   -0.43561E-01  2400   0.883E-01    0.221E+00
DAV:  27    -0.529560996990E+03   -0.38221E+00   -0.18927E-01  2640   0.709E-01    0.188E+00
DAV:  28    -0.529779856896E+03   -0.21886E+00   -0.96874E-02  2448   0.431E-01    0.149E+00
DAV:  29    -0.530099980256E+03   -0.32012E+00   -0.28095E-01  2496   0.645E-01    0.922E-01
DAV:  30    -0.530278201560E+03   -0.17822E+00   -0.79712E-02  2496   0.402E-01    0.737E-01
DAV:  31    -0.530407626994E+03   -0.12943E+00   -0.49810E-02  2400   0.282E-01    0.583E-01
DAV:  32    -0.530550395051E+03   -0.14277E+00   -0.55961E-02  2592   0.253E-01    0.553E-01
DAV:  33    -0.530659114270E+03   -0.10872E+00   -0.10017E-01  2304   0.264E-01    0.465E-01
DAV:  34    -0.530708270025E+03   -0.49156E-01   -0.65557E-02  2448   0.199E-01    0.479E-01
DAV:  35    -0.530723725825E+03   -0.15456E-01   -0.31404E-02  2352   0.139E-01    0.395E-01
DAV:  36    -0.530748339006E+03   -0.24613E-01   -0.61120E-02  2304   0.177E-01    0.364E-01
DAV:  37    -0.530767367009E+03   -0.19028E-01   -0.61236E-02  2304   0.201E-01    0.345E-01
DAV:  38    -0.530781389750E+03   -0.14023E-01   -0.65064E-02  2304   0.191E-01    0.286E-01
DAV:  39    -0.530795294439E+03   -0.13905E-01   -0.17561E-01  2304   0.339E-01    0.173E-01
DAV:  40    -0.530798435766E+03   -0.31413E-02   -0.15967E-02  2544   0.158E-01    0.156E-01
DAV:  41    -0.530799542324E+03   -0.11066E-02   -0.18038E-03  2448   0.715E-02    0.101E-01
DAV:  42    -0.530800397020E+03   -0.85470E-03   -0.22887E-03  2544   0.518E-02    0.106E-01
DAV:  43    -0.530801186609E+03   -0.78959E-03   -0.19329E-03  2400   0.418E-02    0.703E-02
DAV:  44    -0.530801791325E+03   -0.60472E-03   -0.24568E-03  2496   0.448E-02    0.403E-02
DAV:  45    -0.530801966540E+03   -0.17521E-03   -0.91653E-04  2592   0.288E-02    0.329E-02
DAV:  46    -0.530802096473E+03   -0.12993E-03   -0.31791E-04  2592   0.167E-02    0.264E-02
DAV:  47    -0.530802175887E+03   -0.79414E-04   -0.26118E-04  2352   0.124E-02    0.235E-02
DAV:  48    -0.530802277699E+03   -0.10181E-03   -0.30610E-04  2304   0.121E-02    0.214E-02
DAV:  49    -0.530802442302E+03   -0.16460E-03   -0.81282E-04  2208   0.176E-02    0.202E-02
DAV:  50    -0.530802591817E+03   -0.14952E-03   -0.74476E-04  2256   0.164E-02    0.201E-02
DAV:  51    -0.530802690185E+03   -0.98368E-04   -0.35408E-04  2304   0.122E-02    0.199E-02
DAV:  52    -0.530802703702E+03   -0.13517E-04   -0.13691E-05  1632   0.305E-03    0.200E-02
DAV:  53    -0.530802681092E+03    0.22610E-04   -0.21674E-05  1344   0.350E-03    0.209E-02
DAV:  54    -0.530802707589E+03   -0.26497E-04   -0.26220E-05  1296   0.339E-03    0.204E-02
DAV:  55    -0.530803022581E+03   -0.31499E-03   -0.51723E-03  2208   0.417E-02    0.220E-02
DAV:  56    -0.530803134606E+03   -0.11203E-03   -0.53279E-04  2352   0.146E-02    0.221E-02
DAV:  57    -0.530803428684E+03   -0.29408E-03   -0.52804E-03  2112   0.416E-02    0.262E-02
DAV:  58    -0.530803659680E+03   -0.23100E-03   -0.29440E-03  2064   0.312E-02    0.284E-02
DAV:  59    -0.530803754389E+03   -0.94709E-04   -0.36803E-04  2016   0.117E-02    0.285E-02
DAV:  60    -0.530803809284E+03   -0.54895E-04   -0.17468E-04  1776   0.782E-03    0.286E-02
DAV:  61    -0.530803538646E+03    0.27064E-03   -0.37294E-03  2112   0.363E-02    0.261E-02
DAV:  62    -0.530803583440E+03   -0.44794E-04   -0.45376E-05  1824   0.609E-03    0.249E-02
DAV:  63    -0.530803934893E+03   -0.35145E-03   -0.85728E-03  2208   0.534E-02    0.231E-02
DAV:  64    -0.530804531844E+03   -0.59695E-03   -0.35378E-02  2064   0.108E-01    0.239E-02
DAV:  65    -0.530805142098E+03   -0.61025E-03   -0.26742E-02  2160   0.934E-02    0.232E-02
DAV:  66    -0.530805417094E+03   -0.27500E-03   -0.10554E-03  2160   0.219E-02    0.191E-02
DAV:  67    -0.530805684442E+03   -0.26735E-03   -0.66351E-03  2160   0.463E-02    0.201E-02
DAV:  68    -0.530805882994E+03   -0.19855E-03   -0.23993E-03  2064   0.279E-02    0.199E-02
DAV:  69    -0.530806173070E+03   -0.29008E-03   -0.88493E-03  2064   0.533E-02    0.219E-02
DAV:  70    -0.530806608104E+03   -0.43503E-03   -0.26254E-02  2064   0.917E-02    0.269E-02
DAV:  71    -0.530806762315E+03   -0.15421E-03   -0.52104E-04  2400   0.199E-02    0.218E-02
DAV:  72    -0.530807202026E+03   -0.43971E-03   -0.73262E-02  2112   0.154E-01    0.337E-02
DAV:  73    -0.530807420231E+03   -0.21820E-03   -0.41771E-03  2112   0.473E-02    0.218E-02
DAV:  74    -0.530807812860E+03   -0.39263E-03   -0.33767E-02  2160   0.104E-01    0.231E-02
DAV:  75    -0.530808198349E+03   -0.38549E-03   -0.16597E-02  2160   0.710E-02    0.223E-02
DAV:  76    -0.530808480543E+03   -0.28219E-03   -0.10169E-02  2160   0.559E-02    0.211E-02
DAV:  77    -0.530808621333E+03   -0.14079E-03   -0.10385E-03  2016   0.193E-02    0.190E-02
DAV:  78    -0.530808698572E+03   -0.77239E-04   -0.82801E-04  1872   0.160E-02    0.194E-02
DAV:  79    -0.530808742702E+03   -0.44130E-04   -0.21232E-04  1824   0.918E-03    0.193E-02
DAV:  80    -0.530808763440E+03   -0.20738E-04   -0.67935E-05  1536   0.474E-03    0.193E-02
DAV:  81    -0.530808499307E+03    0.26413E-03   -0.63887E-03  1968   0.454E-02    0.229E-02
DAV:  82    -0.530808549230E+03   -0.49923E-04   -0.26880E-04  1968   0.123E-02    0.245E-02
DAV:  83    -0.530808928543E+03   -0.37931E-03   -0.43933E-02  2112   0.117E-01    0.230E-02
DAV:  84    -0.530809200227E+03   -0.27168E-03   -0.59735E-03  2208   0.453E-02    0.216E-02
DAV:  85    -0.530809315514E+03   -0.11529E-03   -0.73122E-04  1968   0.163E-02    0.196E-02
DAV:  86    -0.530809243846E+03    0.71668E-04   -0.48051E-04  1824   0.143E-02    0.236E-02
DAV:  87    -0.530809369160E+03   -0.12531E-03   -0.16372E-03  1920   0.232E-02    0.193E-02
DAV:  88    -0.530809212745E+03    0.15641E-03   -0.90446E-04  1920   0.201E-02    0.273E-02
DAV:  89    -0.530809221023E+03   -0.82779E-05   -0.76570E-06  1392   0.268E-03    0.270E-02
DAV:  90    -0.530809112881E+03    0.10814E-03   -0.59222E-04  1776   0.137E-02
 -----------------------------------------------------------------------------
|                                                                             |
|           W    W    AA    RRRRR   N    N  II  N    N   GGGG   !!!           |
|           W    W   A  A   R    R  NN   N  II  NN   N  G    G  !!!           |
|           W    W  A    A  R    R  N N  N  II  N N  N  G       !!!           |
|           W WW W  AAAAAA  RRRRR   N  N N  II  N  N N  G  GGG   !            |
|           WW  WW  A    A  R   R   N   NN  II  N   NN  G    G                |
|           W    W  A    A  R    R  N    N  II  N    N   GGGG   !!!           |
|                                                                             |
|     The electronic self-consistency was not achieved in the given           |
|     number of steps (NELM). The forces and other quantities evaluated       |
|     might not be reliable so examine the results carefully. If you find     |
|     spurious results, we suggest increasing NELM, if you were close to      |
|     convergence or switching to a different ALGO or adjusting the           |
|     density mixing parameters otherwise.                                    |
|                                                                             |
 -----------------------------------------------------------------------------

   1 F= -.53080911E+03 E0= -.53080117E+03  d E =-.530809E+03  mag=     7.0034
 curvature:   0.00 expect dE= 0.000E+00 dE for cont linesearch  0.000E+00
 trial: gam= 0.00000 g(F)=  0.334E+01 g(S)=  0.000E+00 ort = 0.000E+00 (trialstep = 0.100E+01)
 search vector abs. value=  0.334E+01
 bond charge predicted
       N       E                     dE             d eps       ncg     rms          rms(c)
DAV:   1    -0.529323147305E+03    0.14861E+01   -0.82525E+02  1536   0.412E+01    0.143E+01
DAV:   2    -0.532821699299E+03   -0.34986E+01   -0.46400E+01  2304   0.121E+01    0.340E+01
DAV:   3    -0.531710189779E+03    0.11115E+01   -0.91667E+00  2400   0.456E+00    0.117E+01
DAV:   4    -0.531737412894E+03   -0.27223E-01   -0.20612E+00  2784   0.205E+00    0.106E+01
DAV:   5    -0.531939209303E+03   -0.20180E+00   -0.21532E+00  2352   0.169E+00    0.903E+00
DAV:   6    -0.532184256274E+03   -0.24505E+00   -0.44357E+00  2304   0.222E+00    0.744E+00
DAV:   7    -0.532120782683E+03    0.63474E-01   -0.22631E+00  2448   0.191E+00    0.683E+00
DAV:   8    -0.532121409746E+03   -0.62706E-03   -0.87262E-01  2256   0.162E+00    0.383E+00
DAV:   9    -0.532221444696E+03   -0.10003E+00   -0.23601E-01  2448   0.989E-01    0.221E+00
DAV:  10    -0.532207149209E+03    0.14295E-01   -0.16297E-01  2256   0.979E-01    0.146E+00
DAV:  11    -0.532218918911E+03   -0.11770E-01   -0.43096E-02  2544   0.467E-01    0.119E+00
DAV:  12    -0.532230540269E+03   -0.11621E-01   -0.15432E-02  2736   0.254E-01    0.973E-01
DAV:  13    -0.532241634321E+03   -0.11094E-01   -0.77513E-03  2256   0.176E-01    0.757E-01
DAV:  14    -0.532254869287E+03   -0.13235E-01   -0.51925E-03  2736   0.148E-01    0.553E-01
DAV:  15    -0.532264113649E+03   -0.92444E-02   -0.21615E-03  2352   0.869E-02    0.443E-01
DAV:  16    -0.532272888892E+03   -0.87752E-02   -0.88718E-04  2544   0.500E-02    0.346E-01
DAV:  17    -0.532282093913E+03   -0.92050E-02   -0.13530E-03  2208   0.773E-02    0.229E-01
DAV:  18    -0.532290560095E+03   -0.84662E-02   -0.79280E-04  2784   0.483E-02    0.147E-01
DAV:  19    -0.532296607254E+03   -0.60472E-02   -0.38158E-04  2448   0.347E-02    0.842E-02
DAV:  20    -0.532300902841E+03   -0.42956E-02   -0.16605E-04  2592   0.211E-02    0.443E-02
DAV:  21    -0.532303117126E+03   -0.22143E-02   -0.91559E-05  2496   0.133E-02    0.276E-02
DAV:  22    -0.532304308461E+03   -0.11913E-02   -0.64428E-05  2448   0.944E-03    0.180E-02
DAV:  23    -0.532305205106E+03   -0.89664E-03   -0.10579E-04  2400   0.949E-03    0.118E-02
DAV:  24    -0.532305776664E+03   -0.57156E-03   -0.78781E-05  2352   0.730E-03    0.960E-03
DAV:  25    -0.532306060769E+03   -0.28410E-03   -0.57506E-05  2160   0.489E-03    0.932E-03
DAV:  26    -0.532306241126E+03   -0.18036E-03   -0.58146E-05  1872   0.442E-03    0.848E-03
DAV:  27    -0.532306406287E+03   -0.16516E-03   -0.12593E-04  2112   0.584E-03    0.716E-03
DAV:  28    -0.532306570778E+03   -0.16449E-03   -0.14347E-04  2016   0.592E-03    0.737E-03
DAV:  29    -0.532306598049E+03   -0.27271E-04   -0.14202E-05  1584   0.227E-03    0.714E-03
DAV:  30    -0.532306598654E+03   -0.60520E-06   -0.20779E-07  1152   0.804E-04
   2 F= -.53230660E+03 E0= -.53230496E+03  d E =-.149749E+01  mag=     6.9613
 trial-energy change:   -1.497486  1 .order   -1.596404   -3.341555    0.148748
 step:   0.9492(harm=  0.9574)  dis= 0.19626  next Energy=  -532.310391 (dE=-0.150E+01)
 bond charge predicted
       N       E                     dE             d eps       ncg     rms          rms(c)
DAV:   1    -0.532301259046E+03    0.53390E-02   -0.20951E+00  1536   0.207E+00    0.109E+00
DAV:   2    -0.532308287569E+03   -0.70285E-02   -0.10578E-01  2352   0.524E-01    0.122E+00
DAV:   3    -0.532305417697E+03    0.28699E-02   -0.34187E-02  2496   0.226E-01    0.794E-01
DAV:   4    -0.532306591611E+03   -0.11739E-02   -0.26055E-02  2448   0.189E-01    0.585E-01
DAV:   5    -0.532305864029E+03    0.72758E-03   -0.33969E-02  2544   0.220E-01    0.431E-01
DAV:   6    -0.532305196838E+03    0.66719E-03   -0.84686E-03  2496   0.140E-01    0.224E-01
DAV:   7    -0.532305088593E+03    0.10825E-03   -0.98495E-04  2160   0.596E-02    0.118E-01
DAV:   8    -0.532305281990E+03   -0.19340E-03   -0.62087E-04  2496   0.500E-02    0.106E-01
DAV:   9    -0.532305281023E+03    0.96719E-06   -0.28446E-04  2400   0.336E-02    0.735E-02
DAV:  10    -0.532305276931E+03    0.40922E-05   -0.14992E-04  2256   0.254E-02    0.339E-02
DAV:  11    -0.532305322538E+03   -0.45607E-04   -0.12085E-04  2496   0.182E-02    0.272E-02
DAV:  12    -0.532305362204E+03   -0.39666E-04   -0.61423E-05  2448   0.996E-03    0.162E-02
DAV:  13    -0.532305387395E+03   -0.25191E-04   -0.37461E-05  2496   0.761E-03    0.118E-02
DAV:  14    -0.532305411973E+03   -0.24578E-04   -0.40641E-05  2112   0.549E-03    0.113E-02
DAV:  15    -0.532305434351E+03   -0.22379E-04   -0.50469E-05  1920   0.536E-03    0.781E-03
DAV:  16    -0.532305462691E+03   -0.28340E-04   -0.95810E-05  2016   0.581E-03    0.666E-03
DAV:  17    -0.532305481248E+03   -0.18557E-04   -0.47829E-05  1968   0.412E-03    0.634E-03
DAV:  18    -0.532305494324E+03   -0.13076E-04   -0.26590E-05  1536   0.295E-03    0.608E-03
DAV:  19    -0.532305508733E+03   -0.14409E-04   -0.40034E-05  1680   0.335E-03    0.596E-03
DAV:  20    -0.532305523623E+03   -0.14889E-04   -0.50151E-05  1536   0.355E-03    0.590E-03
DAV:  21    -0.532305543018E+03   -0.19395E-04   -0.10224E-04  1872   0.489E-03    0.579E-03
DAV:  22    -0.532305565755E+03   -0.22738E-04   -0.17720E-04  1920   0.623E-03    0.572E-03
DAV:  23    -0.532305590954E+03   -0.25199E-04   -0.29727E-04  1968   0.797E-03    0.562E-03
DAV:  24    -0.532305626309E+03   -0.35355E-04   -0.20324E-03  1872   0.206E-02    0.599E-03
DAV:  25    -0.532305660303E+03   -0.33994E-04   -0.79065E-03  1968   0.406E-02    0.853E-03
DAV:  26    -0.532305715441E+03   -0.55138E-04   -0.15938E-03  2016   0.188E-02    0.627E-03
DAV:  27    -0.532305742684E+03   -0.27243E-04   -0.29985E-04  1776   0.846E-03    0.540E-03
DAV:  28    -0.532305751665E+03   -0.89811E-05   -0.22436E-05  1584   0.281E-03    0.535E-03
DAV:  29    -0.532305750816E+03    0.84982E-06   -0.51664E-06  1344   0.158E-03
   3 F= -.53230575E+03 E0= -.53230446E+03  d E =-.149664E+01  mag=     6.9721
 curvature:  -0.46 expect dE=-0.889E+00 dE for cont linesearch -0.505E-02
 trial: gam= 0.52014 g(F)=  0.193E+01 g(S)=  0.000E+00 ort = 0.191E+00 (trialstep = 0.990E+00)
 search vector abs. value=  0.303E+01
 bond charge predicted
       N       E                     dE             d eps       ncg     rms          rms(c)
DAV:   1    -0.531111644015E+03    0.11941E+01   -0.69461E+02  1584   0.389E+01    0.990E+00
DAV:   2    -0.533272747523E+03   -0.21611E+01   -0.24904E+01  2160   0.955E+00    0.106E+01
DAV:   3    -0.533149237714E+03    0.12351E+00   -0.17355E+00  2496   0.272E+00    0.623E+00
DAV:   4    -0.533117258501E+03    0.31979E-01   -0.11408E+00  2208   0.190E+00    0.409E+00
DAV:   5    -0.533094999248E+03    0.22259E-01   -0.39950E-01  2448   0.161E+00    0.250E+00
DAV:   6    -0.533093746499E+03    0.12527E-02   -0.22399E-01  2544   0.109E+00    0.159E+00
DAV:   7    -0.533095519073E+03   -0.17726E-02   -0.82201E-02  2544   0.587E-01    0.893E-01
DAV:   8    -0.533095453061E+03    0.66011E-04   -0.22982E-02  2592   0.359E-01    0.612E-01
DAV:   9    -0.533093195896E+03    0.22572E-02   -0.14882E-02  2208   0.298E-01    0.498E-01
DAV:  10    -0.533095906367E+03   -0.27105E-02   -0.60011E-03  2544   0.158E-01    0.404E-01
DAV:  11    -0.533094858970E+03    0.10474E-02   -0.32072E-03  2208   0.139E-01    0.259E-01
DAV:  12    -0.533094947640E+03   -0.88670E-04   -0.35256E-03  2256   0.132E-01    0.154E-01
DAV:  13    -0.533095072855E+03   -0.12521E-03   -0.81633E-04  2304   0.682E-02    0.635E-02
DAV:  14    -0.533095271845E+03   -0.19899E-03   -0.26031E-04  2688   0.340E-02    0.481E-02
DAV:  15    -0.533095405325E+03   -0.13348E-03   -0.10423E-04  2592   0.213E-02    0.278E-02
DAV:  16    -0.533095517242E+03   -0.11192E-03   -0.64514E-05  2688   0.144E-02    0.187E-02
DAV:  17    -0.533095596734E+03   -0.79492E-04   -0.35387E-05  2640   0.102E-02    0.127E-02
DAV:  18    -0.533095672814E+03   -0.76080E-04   -0.28654E-05  2304   0.619E-03    0.794E-03
DAV:  19    -0.533095728978E+03   -0.56164E-04   -0.21640E-05  1968   0.459E-03    0.597E-03
DAV:  20    -0.533095776457E+03   -0.47479E-04   -0.20854E-05  1920   0.376E-03    0.475E-03
DAV:  21    -0.533095815732E+03   -0.39275E-04   -0.20137E-05  1776   0.307E-03    0.416E-03
DAV:  22    -0.533095860104E+03   -0.44372E-04   -0.38989E-05  1920   0.342E-03    0.391E-03
DAV:  23    -0.533095895880E+03   -0.35776E-04   -0.42240E-05  1776   0.327E-03    0.387E-03
DAV:  24    -0.533095908970E+03   -0.13090E-04   -0.10071E-05  1440   0.182E-03    0.376E-03
DAV:  25    -0.533095922240E+03   -0.13270E-04   -0.15358E-05  1680   0.199E-03    0.367E-03
DAV:  26    -0.533095942313E+03   -0.20073E-04   -0.61262E-05  1872   0.362E-03    0.360E-03
DAV:  27    -0.533095959312E+03   -0.16999E-04   -0.14680E-04  1824   0.549E-03    0.357E-03
DAV:  28    -0.533095964761E+03   -0.54491E-05   -0.90555E-05  1824   0.439E-03    0.353E-03
DAV:  29    -0.533095968274E+03   -0.35137E-05   -0.23279E-05  1392   0.237E-03    0.345E-03
DAV:  30    -0.533095971573E+03   -0.32986E-05   -0.26628E-05  1536   0.245E-03    0.349E-03
DAV:  31    -0.533095973642E+03   -0.20688E-05   -0.71007E-06  1200   0.139E-03    0.344E-03
DAV:  32    -0.533095977550E+03   -0.39080E-05   -0.36696E-05  1632   0.279E-03    0.339E-03
DAV:  33    -0.533095992662E+03   -0.15112E-04   -0.14712E-03  2064   0.169E-02    0.383E-03
DAV:  34    -0.533096013881E+03   -0.21219E-04   -0.15575E-03  2064   0.173E-02    0.415E-03
DAV:  35    -0.533096034424E+03   -0.20544E-04   -0.97760E-04  1968   0.137E-02    0.397E-03
DAV:  36    -0.533096049232E+03   -0.14808E-04   -0.20376E-04  1776   0.652E-03    0.315E-03
DAV:  37    -0.533096059393E+03   -0.10161E-04   -0.54987E-04  1872   0.102E-02    0.332E-03
DAV:  38    -0.533096071130E+03   -0.11737E-04   -0.10050E-03  2064   0.139E-02    0.346E-03
DAV:  39    -0.533096084025E+03   -0.12895E-04   -0.28923E-04  1776   0.760E-03    0.330E-03
DAV:  40    -0.533096093284E+03   -0.92587E-05   -0.56584E-04  1872   0.104E-02    0.317E-03
DAV:  41    -0.533096104406E+03   -0.11122E-04   -0.11607E-03  1872   0.148E-02    0.337E-03
DAV:  42    -0.533096116281E+03   -0.11876E-04   -0.75863E-04  1920   0.120E-02    0.294E-03
DAV:  43    -0.533096125179E+03   -0.88976E-05   -0.69426E-04  1824   0.116E-02    0.288E-03
DAV:  44    -0.533096134347E+03   -0.91684E-05   -0.25537E-04  1776   0.708E-03    0.226E-03
DAV:  45    -0.533096139145E+03   -0.47977E-05   -0.19238E-04  1872   0.618E-03    0.191E-03
DAV:  46    -0.533096142843E+03   -0.36980E-05   -0.33247E-04  1680   0.799E-03    0.206E-03
DAV:  47    -0.533096145145E+03   -0.23018E-05   -0.51187E-04  2112   0.993E-03    0.208E-03
DAV:  48    -0.533096150102E+03   -0.49573E-05   -0.23708E-04  1776   0.678E-03    0.180E-03
DAV:  49    -0.533096153213E+03   -0.31111E-05   -0.91526E-05  1632   0.433E-03    0.126E-03
DAV:  50    -0.533096154281E+03   -0.10682E-05   -0.10797E-04  1728   0.461E-03    0.130E-03
DAV:  51    -0.533096155452E+03   -0.11705E-05   -0.73897E-05  1584   0.386E-03    0.140E-03
DAV:  52    -0.533096156682E+03   -0.12303E-05   -0.24559E-05  1440   0.239E-03    0.114E-03
DAV:  53    -0.533096157380E+03   -0.69825E-06   -0.15886E-05  1440   0.200E-03    0.102E-03
DAV:  54    -0.533096158109E+03   -0.72836E-06   -0.88496E-06  1248   0.155E-03
   4 F= -.53309616E+03 E0= -.53309466E+03  d E =-.790407E+00  mag=     6.9660
 trial-energy change:   -0.790407  1 .order   -0.798391   -2.008314    0.411532
 step:   0.8187(harm=  0.8215)  dis= 0.12517  next Energy=  -533.131775 (dE=-0.826E+00)
 bond charge predicted
       N       E                     dE             d eps       ncg     rms          rms(c)
DAV:   1    -0.533085039327E+03    0.11118E-01   -0.20700E+01  1536   0.676E+00    0.182E+00
DAV:   2    -0.533134299221E+03   -0.49260E-01   -0.57488E-01  2112   0.151E+00    0.151E+00
DAV:   3    -0.533132904371E+03    0.13949E-02   -0.53667E-02  2592   0.534E-01    0.873E-01
DAV:   4    -0.533132904343E+03    0.27816E-07   -0.24470E-02  2592   0.398E-01    0.667E-01
DAV:   5    -0.533132413513E+03    0.49083E-03   -0.11870E-02  2544   0.330E-01    0.344E-01
DAV:   6    -0.533132296873E+03    0.11664E-03   -0.44239E-03  2592   0.171E-01    0.168E-01
DAV:   7    -0.533132374876E+03   -0.78003E-04   -0.14938E-03  2400   0.862E-02    0.146E-01
DAV:   8    -0.533132429944E+03   -0.55068E-04   -0.49825E-04  2688   0.515E-02    0.956E-02
DAV:   9    -0.533132367401E+03    0.62543E-04   -0.24045E-04  2208   0.357E-02    0.589E-02
DAV:  10    -0.533132444669E+03   -0.77268E-04   -0.30813E-04  2256   0.393E-02    0.931E-02
DAV:  11    -0.533132440952E+03    0.37174E-05   -0.14819E-04  2160   0.296E-02    0.321E-02
DAV:  12    -0.533132473894E+03   -0.32942E-04   -0.62148E-05  2352   0.169E-02    0.145E-02
DAV:  13    -0.533132494598E+03   -0.20704E-04   -0.13373E-05  2640   0.735E-03    0.119E-02
DAV:  14    -0.533132509776E+03   -0.15178E-04   -0.31063E-06  1824   0.456E-03    0.743E-03
DAV:  15    -0.533132526403E+03   -0.16627E-04   -0.34001E-06  1680   0.332E-03    0.382E-03
DAV:  16    -0.533132536290E+03   -0.98874E-05   -0.11680E-06  1392   0.243E-03    0.262E-03
DAV:  17    -0.533132542454E+03   -0.61642E-05   -0.68488E-07  1344   0.177E-03    0.195E-03
DAV:  18    -0.533132548991E+03   -0.65363E-05   -0.75792E-07  1296   0.156E-03    0.156E-03
DAV:  19    -0.533132553355E+03   -0.43648E-05   -0.47258E-07  1248   0.129E-03    0.126E-03
DAV:  20    -0.533132556883E+03   -0.35276E-05   -0.43061E-07  1248   0.103E-03    0.102E-03
DAV:  21    -0.533132562525E+03   -0.56423E-05   -0.12036E-06  1296   0.114E-03    0.102E-03
DAV:  22    -0.533132565895E+03   -0.33695E-05   -0.86558E-07  1248   0.107E-03    0.868E-04
DAV:  23    -0.533132568856E+03   -0.29609E-05   -0.10088E-06  1248   0.995E-04    0.831E-04
DAV:  24    -0.533132570062E+03   -0.12066E-05   -0.39701E-07  1152   0.872E-04    0.803E-04
DAV:  25    -0.533132570660E+03   -0.59797E-06   -0.20027E-07  1104   0.675E-04
   5 F= -.53313257E+03 E0= -.53313151E+03  d E =-.826820E+00  mag=     6.9770
 curvature:  -0.61 expect dE=-0.141E+01 dE for cont linesearch -0.141E-04
 trial: gam= 0.85192 g(F)=  0.230E+01 g(S)=  0.000E+00 ort =-0.836E-02 (trialstep = 0.645E+00)
 search vector abs. value=  0.449E+01
 bond charge predicted
       N       E                     dE             d eps       ncg     rms          rms(c)
DAV:   1    -0.531795611948E+03    0.13370E+01   -0.45402E+02  1536   0.310E+01    0.114E+01
DAV:   2    -0.533462801838E+03   -0.16672E+01   -0.19080E+01  2256   0.734E+00    0.106E+01
DAV:   3    -0.533213639201E+03    0.24916E+00   -0.19970E+00  2544   0.280E+00    0.825E+00
DAV:   4    -0.533275474398E+03   -0.61835E-01   -0.85666E-01  2832   0.161E+00    0.585E+00
DAV:   5    -0.533291897889E+03   -0.16423E-01   -0.11005E+00  2640   0.162E+00    0.317E+00
DAV:   6    -0.533230812536E+03    0.61085E-01   -0.83584E-01  2736   0.135E+00    0.165E+00
DAV:   7    -0.533228167025E+03    0.26455E-02   -0.98256E-02  2544   0.598E-01    0.653E-01
DAV:   8    -0.533229685672E+03   -0.15186E-02   -0.32469E-02  2448   0.298E-01    0.340E-01
DAV:   9    -0.533230937641E+03   -0.12520E-02   -0.49462E-03  2544   0.141E-01    0.191E-01
DAV:  10    -0.533231454507E+03   -0.51687E-03   -0.17295E-03  2448   0.894E-02    0.135E-01
DAV:  11    -0.533231814499E+03   -0.35999E-03   -0.76350E-04  2592   0.621E-02    0.697E-02
DAV:  12    -0.533232024382E+03   -0.20988E-03   -0.28899E-04  2544   0.359E-02    0.478E-02
DAV:  13    -0.533232191706E+03   -0.16732E-03   -0.92809E-05  2448   0.201E-02    0.242E-02
DAV:  14    -0.533232342978E+03   -0.15127E-03   -0.40384E-05  2256   0.113E-02    0.145E-02
DAV:  15    -0.533232486216E+03   -0.14324E-03   -0.23833E-05  2256   0.862E-03    0.106E-02
DAV:  16    -0.533232572603E+03   -0.86387E-04   -0.99827E-06  2016   0.565E-03    0.643E-03
DAV:  17    -0.533232668044E+03   -0.95441E-04   -0.10194E-05  1824   0.396E-03    0.476E-03
DAV:  18    -0.533232758343E+03   -0.90299E-04   -0.11786E-05  1776   0.340E-03    0.347E-03
DAV:  19    -0.533232811959E+03   -0.53616E-04   -0.71942E-06  1824   0.284E-03    0.254E-03
DAV:  20    -0.533232851613E+03   -0.39654E-04   -0.68866E-06  1728   0.242E-03    0.226E-03
DAV:  21    -0.533232869857E+03   -0.18244E-04   -0.28840E-06  1632   0.175E-03    0.175E-03
DAV:  22    -0.533232884162E+03   -0.14305E-04   -0.36810E-06  1584   0.157E-03    0.150E-03
DAV:  23    -0.533232891874E+03   -0.77120E-05   -0.24084E-06  1296   0.124E-03    0.134E-03
DAV:  24    -0.533232896468E+03   -0.45937E-05   -0.18694E-06  1296   0.109E-03    0.130E-03
DAV:  25    -0.533232900497E+03   -0.40293E-05   -0.24858E-06  1344   0.114E-03    0.124E-03
DAV:  26    -0.533232903024E+03   -0.25273E-05   -0.17935E-06  1152   0.998E-04    0.114E-03
DAV:  27    -0.533232906140E+03   -0.31156E-05   -0.49362E-06  1296   0.130E-03    0.115E-03
DAV:  28    -0.533232908119E+03   -0.19789E-05   -0.46346E-06  1296   0.126E-03    0.114E-03
DAV:  29    -0.533232908790E+03   -0.67151E-06   -0.11105E-06  1104   0.829E-04
   6 F= -.53323291E+03 E0= -.53323290E+03  d E =-.100338E+00  mag=     7.0000
 trial-energy change:   -0.100338  1 .order   -0.271280   -1.482328    0.939768
 step:   0.3266(harm=  0.3949)  dis= 0.07671  next Energy=  -533.485548 (dE=-0.353E+00)
 bond charge predicted
       N       E                     dE             d eps       ncg     rms          rms(c)
DAV:   1    -0.533216965782E+03    0.15942E-01   -0.11445E+02  1536   0.156E+01    0.343E+00
DAV:   2    -0.533492829305E+03   -0.27586E+00   -0.29946E+00  1824   0.309E+00    0.432E+00
DAV:   3    -0.533492817789E+03    0.11516E-04   -0.19813E-01  2496   0.869E-01    0.362E+00
DAV:   4    -0.533494359228E+03   -0.15414E-02   -0.10783E-01  2544   0.646E-01    0.283E+00
DAV:   5    -0.533480906676E+03    0.13453E-01   -0.11173E-01  2256   0.671E-01    0.872E-01
DAV:   6    -0.533482839343E+03   -0.19327E-02   -0.42092E-02  2592   0.470E-01    0.743E-01
DAV:   7    -0.533482251414E+03    0.58793E-03   -0.12726E-02  2496   0.250E-01    0.418E-01
DAV:   8    -0.533482043026E+03    0.20839E-03   -0.57939E-03  2688   0.139E-01    0.322E-01
DAV:   9    -0.533481911931E+03    0.13110E-03   -0.19597E-03  2448   0.897E-02    0.204E-01
DAV:  10    -0.533481893815E+03    0.18116E-04   -0.12664E-03  2256   0.651E-02    0.101E-01
DAV:  11    -0.533482030465E+03   -0.13665E-03   -0.49804E-04  2448   0.440E-02    0.513E-02
DAV:  12    -0.533482120204E+03   -0.89740E-04   -0.11370E-04  2256   0.231E-02    0.313E-02
DAV:  13    -0.533482202366E+03   -0.82161E-04   -0.44626E-05  2592   0.124E-02    0.175E-02
DAV:  14    -0.533482258608E+03   -0.56242E-04   -0.14444E-05  2592   0.769E-03    0.106E-02
DAV:  15    -0.533482305068E+03   -0.46460E-04   -0.70986E-06  2256   0.497E-03    0.565E-03
DAV:  16    -0.533482332506E+03   -0.27439E-04   -0.17691E-06  1680   0.316E-03    0.378E-03
DAV:  17    -0.533482355293E+03   -0.22786E-04   -0.11910E-06  1392   0.216E-03    0.273E-03
DAV:  18    -0.533482382104E+03   -0.26811E-04   -0.16144E-06  1440   0.178E-03    0.218E-03
DAV:  19    -0.533482402782E+03   -0.20678E-04   -0.11636E-06  1344   0.167E-03    0.164E-03
DAV:  20    -0.533482421371E+03   -0.18588E-04   -0.14632E-06  1536   0.147E-03    0.125E-03
DAV:  21    -0.533482437460E+03   -0.16089E-04   -0.12625E-06  1296   0.122E-03    0.107E-03
DAV:  22    -0.533482449992E+03   -0.12532E-04   -0.14080E-06  1296   0.118E-03    0.979E-04
DAV:  23    -0.533482456159E+03   -0.61673E-05   -0.68240E-07  1248   0.101E-03    0.797E-04
DAV:  24    -0.533482460747E+03   -0.45873E-05   -0.72059E-07  1200   0.901E-04    0.796E-04
DAV:  25    -0.533482463613E+03   -0.28659E-05   -0.61473E-07  1104   0.854E-04    0.722E-04
DAV:  26    -0.533482465678E+03   -0.20655E-05   -0.69694E-07  1104   0.785E-04    0.726E-04
DAV:  27    -0.533482466750E+03   -0.10723E-05   -0.38980E-07  1104   0.705E-04    0.690E-04
DAV:  28    -0.533482467343E+03   -0.59220E-06   -0.26117E-07  1104   0.579E-04
   7 F= -.53348247E+03 E0= -.53348233E+03  d E =-.349897E+00  mag=     6.9977
 curvature:  -0.36 expect dE=-0.181E+00 dE for cont linesearch -0.522E-07
 trial: gam= 0.20032 g(F)=  0.506E+00 g(S)=  0.000E+00 ort = 0.810E-03 (trialstep = 0.582E+00)
 search vector abs. value=  0.686E+00
 bond charge predicted
       N       E                     dE             d eps       ncg     rms          rms(c)
DAV:   1    -0.533514958234E+03   -0.32491E-01   -0.54998E+01  1536   0.115E+01    0.225E+00
DAV:   2    -0.533671436442E+03   -0.15648E+00   -0.18021E+00  2448   0.274E+00    0.251E+00
DAV:   3    -0.533662563082E+03    0.88734E-02   -0.14368E-01  2640   0.849E-01    0.152E+00
DAV:   4    -0.533660963652E+03    0.15994E-02   -0.54531E-02  2544   0.451E-01    0.121E+00
DAV:   5    -0.533660697201E+03    0.26645E-03   -0.37827E-02  2496   0.430E-01    0.869E-01
DAV:   6    -0.533658533621E+03    0.21636E-02   -0.25286E-02  2496   0.334E-01    0.389E-01
DAV:   7    -0.533658443077E+03    0.90544E-04   -0.56432E-03  2352   0.154E-01    0.163E-01
DAV:   8    -0.533658434705E+03    0.83718E-05   -0.13225E-03  2592   0.761E-02    0.982E-02
DAV:   9    -0.533658437855E+03   -0.31502E-05   -0.40061E-04  2400   0.460E-02    0.628E-02
DAV:  10    -0.533658493559E+03   -0.55704E-04   -0.19743E-04  2592   0.295E-02    0.311E-02
DAV:  11    -0.533658528171E+03   -0.34612E-04   -0.61400E-05  2640   0.180E-02    0.204E-02
DAV:  12    -0.533658556144E+03   -0.27973E-04   -0.18690E-05  2304   0.906E-03    0.127E-02
DAV:  13    -0.533658592150E+03   -0.36006E-04   -0.74696E-06  2208   0.521E-03    0.847E-03
DAV:  14    -0.533658625778E+03   -0.33628E-04   -0.45468E-06  1872   0.399E-03    0.497E-03
DAV:  15    -0.533658653022E+03   -0.27245E-04   -0.22314E-06  1584   0.329E-03    0.345E-03
DAV:  16    -0.533658670023E+03   -0.17001E-04   -0.96227E-07  1344   0.208E-03    0.214E-03
DAV:  17    -0.533658691493E+03   -0.21470E-04   -0.18961E-06  1584   0.177E-03    0.176E-03
DAV:  18    -0.533658707903E+03   -0.16410E-04   -0.12689E-06  1344   0.149E-03    0.136E-03
DAV:  19    -0.533658716950E+03   -0.90469E-05   -0.75697E-07  1344   0.133E-03    0.118E-03
DAV:  20    -0.533658724565E+03   -0.76145E-05   -0.80320E-07  1248   0.123E-03    0.946E-04
DAV:  21    -0.533658730627E+03   -0.60619E-05   -0.80916E-07  1248   0.120E-03    0.851E-04
DAV:  22    -0.533658735439E+03   -0.48124E-05   -0.82083E-07  1248   0.113E-03    0.801E-04
DAV:  23    -0.533658739701E+03   -0.42621E-05   -0.11566E-06  1248   0.115E-03    0.763E-04
DAV:  24    -0.533658742361E+03   -0.26600E-05   -0.94607E-07  1200   0.105E-03    0.757E-04
DAV:  25    -0.533658743227E+03   -0.86560E-06   -0.28030E-07  1104   0.872E-04
   8 F= -.53365874E+03 E0= -.53365872E+03  d E =-.176276E+00  mag=     6.9996
 trial-energy change:   -0.176276  1 .order   -0.177269   -0.294076   -0.060463
 step:   0.7371(harm=  0.7320)  dis= 0.04882  next Energy=  -533.666810 (dE=-0.184E+00)
 bond charge predicted
       N       E                     dE             d eps       ncg     rms          rms(c)
DAV:   1    -0.533656635514E+03    0.21068E-02   -0.39373E+00  1536   0.305E+00    0.577E-01
DAV:   2    -0.533667463783E+03   -0.10828E-01   -0.12460E-01  2448   0.719E-01    0.640E-01
DAV:   3    -0.533667076328E+03    0.38746E-03   -0.97195E-03  2688   0.217E-01    0.408E-01
DAV:   4    -0.533666945027E+03    0.13130E-03   -0.33490E-03  2448   0.118E-01    0.337E-01
DAV:   5    -0.533666909750E+03    0.35278E-04   -0.29383E-03  2496   0.118E-01    0.239E-01
DAV:   6    -0.533666751424E+03    0.15833E-03   -0.17648E-03  2496   0.879E-02    0.940E-02
DAV:   7    -0.533666762463E+03   -0.11039E-04   -0.36470E-04  2256   0.390E-02    0.449E-02
DAV:   8    -0.533666764503E+03   -0.20399E-05   -0.86698E-05  2592   0.196E-02    0.261E-02
DAV:   9    -0.533666768688E+03   -0.41847E-05   -0.29587E-05  2352   0.120E-02    0.169E-02
DAV:  10    -0.533666775538E+03   -0.68504E-05   -0.14494E-05  2544   0.824E-03    0.820E-03
DAV:  11    -0.533666779661E+03   -0.41230E-05   -0.41125E-06  2112   0.501E-03    0.566E-03
DAV:  12    -0.533666782903E+03   -0.32415E-05   -0.13974E-06  1680   0.269E-03    0.349E-03
DAV:  13    -0.533666787176E+03   -0.42733E-05   -0.10444E-06  1296   0.180E-03    0.234E-03
DAV:  14    -0.533666790374E+03   -0.31977E-05   -0.57908E-07  1248   0.154E-03    0.180E-03
DAV:  15    -0.533666793280E+03   -0.29058E-05   -0.52264E-07  1296   0.120E-03    0.118E-03
DAV:  16    -0.533666795958E+03   -0.26783E-05   -0.46442E-07  1152   0.102E-03    0.930E-04
DAV:  17    -0.533666797980E+03   -0.20216E-05   -0.39026E-07  1200   0.880E-04    0.874E-04
DAV:  18    -0.533666800078E+03   -0.20987E-05   -0.50273E-07  1152   0.834E-04    0.778E-04
DAV:  19    -0.533666801715E+03   -0.16365E-05   -0.47712E-07  1200   0.783E-04    0.724E-04
DAV:  20    -0.533666803061E+03   -0.13460E-05   -0.49148E-07  1152   0.720E-04    0.716E-04
DAV:  21    -0.533666804678E+03   -0.16170E-05   -0.99193E-07  1200   0.797E-04    0.696E-04
DAV:  22    -0.533666805485E+03   -0.80727E-06   -0.47484E-07  1104   0.698E-04
   9 F= -.53366681E+03 E0= -.53366679E+03  d E =-.184338E+00  mag=     6.9997
 curvature:  -0.50 expect dE=-0.152E+00 dE for cont linesearch -0.721E-08
 trial: gam= 0.59133 g(F)=  0.307E+00 g(S)=  0.000E+00 ort =-0.998E-04 (trialstep = 0.613E+00)
 search vector abs. value=  0.547E+00
 bond charge predicted
       N       E                     dE             d eps       ncg     rms          rms(c)
DAV:   1    -0.533626437025E+03    0.40368E-01   -0.51386E+01  1536   0.113E+01    0.225E+00
DAV:   2    -0.533762829834E+03   -0.13639E+00   -0.15554E+00  2160   0.263E+00    0.245E+00
DAV:   3    -0.533759425662E+03    0.34042E-02   -0.16162E-01  2832   0.882E-01    0.155E+00
DAV:   4    -0.533757796319E+03    0.16293E-02   -0.53771E-02  2544   0.478E-01    0.123E+00
DAV:   5    -0.533757127232E+03    0.66909E-03   -0.36494E-02  2688   0.413E-01    0.746E-01
DAV:   6    -0.533755866382E+03    0.12609E-02   -0.21834E-02  2544   0.288E-01    0.375E-01
DAV:   7    -0.533755749084E+03    0.11730E-03   -0.58604E-03  2544   0.159E-01    0.219E-01
DAV:   8    -0.533755746064E+03    0.30203E-05   -0.15411E-03  2592   0.794E-02    0.120E-01
DAV:   9    -0.533755814419E+03   -0.68356E-04   -0.47076E-04  2400   0.451E-02    0.831E-02
DAV:  10    -0.533755970064E+03   -0.15565E-03   -0.29284E-04  2256   0.331E-02    0.370E-02
DAV:  11    -0.533756092029E+03   -0.12197E-03   -0.89255E-05  2640   0.203E-02    0.215E-02
DAV:  12    -0.533756167111E+03   -0.75082E-04   -0.18388E-05  2592   0.105E-02    0.141E-02
DAV:  13    -0.533756240488E+03   -0.73377E-04   -0.86180E-06  2352   0.600E-03    0.995E-03
DAV:  14    -0.533756310036E+03   -0.69548E-04   -0.54279E-06  1872   0.447E-03    0.602E-03
DAV:  15    -0.533756360741E+03   -0.50704E-04   -0.29349E-06  1776   0.333E-03    0.363E-03
DAV:  16    -0.533756391913E+03   -0.31173E-04   -0.11092E-06  1488   0.207E-03    0.245E-03
DAV:  17    -0.533756412198E+03   -0.20285E-04   -0.67881E-07  1440   0.153E-03    0.172E-03
DAV:  18    -0.533756432505E+03   -0.20307E-04   -0.78514E-07  1392   0.133E-03    0.132E-03
DAV:  19    -0.533756448099E+03   -0.15594E-04   -0.55962E-07  1296   0.119E-03    0.102E-03
DAV:  20    -0.533756461386E+03   -0.13287E-04   -0.60052E-07  1248   0.112E-03    0.826E-04
DAV:  21    -0.533756474696E+03   -0.13310E-04   -0.73165E-07  1248   0.105E-03    0.710E-04
DAV:  22    -0.533756483902E+03   -0.92066E-05   -0.64550E-07  1200   0.101E-03    0.663E-04
DAV:  23    -0.533756489411E+03   -0.55086E-05   -0.45324E-07  1152   0.911E-04    0.631E-04
DAV:  24    -0.533756493074E+03   -0.36625E-05   -0.38669E-07  1152   0.840E-04    0.593E-04
DAV:  25    -0.533756496569E+03   -0.34953E-05   -0.63018E-07  1200   0.860E-04    0.568E-04
DAV:  26    -0.533756499026E+03   -0.24566E-05   -0.78664E-07  1152   0.851E-04    0.569E-04
DAV:  27    -0.533756499784E+03   -0.75809E-06   -0.35628E-07  1104   0.740E-04
  10 F= -.53375650E+03 E0= -.53375649E+03  d E =-.896943E-01  mag=     6.9999
 trial-energy change:   -0.089694  1 .order   -0.090202   -0.188156    0.007753
 step:   0.5880(harm=  0.5884)  dis= 0.02659  next Energy=  -533.756656 (dE=-0.899E-01)
 bond charge predicted
       N       E                     dE             d eps       ncg     rms          rms(c)
DAV:   1    -0.533756451359E+03    0.47667E-04   -0.83017E-02  1536   0.454E-01    0.961E-02
DAV:   2    -0.533756655427E+03   -0.20407E-03   -0.24872E-03  2208   0.105E-01    0.100E-01
DAV:   3    -0.533756653761E+03    0.16665E-05   -0.26887E-04  2880   0.362E-02    0.620E-02
DAV:   4    -0.533756651841E+03    0.19204E-05   -0.95145E-05  2496   0.209E-02    0.477E-02
DAV:   5    -0.533756650512E+03    0.13287E-05   -0.60425E-05  2544   0.169E-02    0.265E-02
DAV:   6    -0.533756649232E+03    0.12798E-05   -0.30302E-05  2496   0.107E-02    0.117E-02
DAV:   7    -0.533756650344E+03   -0.11122E-05   -0.68220E-06  2352   0.532E-03    0.692E-03
DAV:   8    -0.533756650847E+03   -0.50267E-06   -0.17213E-06  1632   0.291E-03
  11 F= -.53375665E+03 E0= -.53375664E+03  d E =-.898454E-01  mag=     6.9999
 curvature:  -0.52 expect dE=-0.117E+00 dE for cont linesearch -0.264E-07
 trial: gam= 0.73322 g(F)=  0.224E+00 g(S)=  0.000E+00 ort = 0.166E-03 (trialstep = 0.608E+00)
 search vector abs. value=  0.518E+00
 bond charge predicted
       N       E                     dE             d eps       ncg     rms          rms(c)
DAV:   1    -0.533717510475E+03    0.39140E-01   -0.48763E+01  1536   0.111E+01    0.172E+00
DAV:   2    -0.533837826717E+03   -0.12032E+00   -0.12862E+00  2112   0.235E+00    0.188E+00
DAV:   3    -0.533845545980E+03   -0.77193E-02   -0.10828E-01  2832   0.667E-01    0.140E+00
DAV:   4    -0.533844677705E+03    0.86827E-03   -0.28167E-02  2304   0.365E-01    0.124E+00
DAV:   5    -0.533843127581E+03    0.15501E-02   -0.36372E-02  2448   0.402E-01    0.735E-01
DAV:   6    -0.533842424687E+03    0.70289E-03   -0.15831E-02  2496   0.278E-01    0.283E-01
DAV:   7    -0.533842404165E+03    0.20522E-04   -0.30747E-03  2544   0.137E-01    0.176E-01
DAV:   8    -0.533842435159E+03   -0.30994E-04   -0.92829E-04  2688   0.687E-02    0.119E-01
DAV:   9    -0.533842474071E+03   -0.38912E-04   -0.29434E-04  2544   0.359E-02    0.817E-02
DAV:  10    -0.533842558898E+03   -0.84827E-04   -0.21586E-04  2256   0.296E-02    0.393E-02
DAV:  11    -0.533842615385E+03   -0.56487E-04   -0.77283E-05  2592   0.205E-02    0.174E-02
DAV:  12    -0.533842647544E+03   -0.32159E-04   -0.18637E-05  2640   0.889E-03    0.124E-02
DAV:  13    -0.533842672226E+03   -0.24682E-04   -0.58141E-06  2304   0.549E-03    0.762E-03
DAV:  14    -0.533842698309E+03   -0.26083E-04   -0.20122E-06  1872   0.359E-03    0.514E-03
DAV:  15    -0.533842731765E+03   -0.33457E-04   -0.15758E-06  1584   0.223E-03    0.268E-03
DAV:  16    -0.533842748115E+03   -0.16349E-04   -0.48904E-07  1344   0.180E-03    0.177E-03
DAV:  17    -0.533842758312E+03   -0.10197E-04   -0.26322E-07  1200   0.120E-03    0.144E-03
DAV:  18    -0.533842773493E+03   -0.15181E-04   -0.38711E-07  1296   0.112E-03    0.918E-04
DAV:  19    -0.533842782383E+03   -0.88900E-05   -0.22377E-07  1200   0.987E-04    0.727E-04
DAV:  20    -0.533842790918E+03   -0.85350E-05   -0.25306E-07  1248   0.913E-04    0.615E-04
DAV:  21    -0.533842799196E+03   -0.82777E-05   -0.27753E-07  1296   0.882E-04    0.521E-04
DAV:  22    -0.533842803925E+03   -0.47291E-05   -0.18824E-07  1200   0.820E-04    0.469E-04
DAV:  23    -0.533842807332E+03   -0.34075E-05   -0.17269E-07  1200   0.732E-04    0.418E-04
DAV:  24    -0.533842810265E+03   -0.29322E-05   -0.17222E-07  1152   0.703E-04    0.393E-04
DAV:  25    -0.533842812331E+03   -0.20666E-05   -0.16918E-07  1152   0.658E-04    0.383E-04
DAV:  26    -0.533842813181E+03   -0.85028E-06   -0.94650E-08  1104   0.607E-04
  12 F= -.53384281E+03 E0= -.53384281E+03  d E =-.861623E-01  mag=     6.9999
 trial-energy change:   -0.086162  1 .order   -0.086585   -0.136242   -0.036928
 step:   0.8420(harm=  0.8337)  dis= 0.03453  next Energy=  -533.849906 (dE=-0.933E-01)
 bond charge predicted
       N       E                     dE             d eps       ncg     rms          rms(c)
DAV:   1    -0.533831685842E+03    0.11126E-01   -0.72478E+00  1536   0.426E+00    0.639E-01
DAV:   2    -0.533848968060E+03   -0.17282E-01   -0.18616E-01  2160   0.893E-01    0.699E-01
DAV:   3    -0.533850203478E+03   -0.12354E-02   -0.15505E-02  2832   0.249E-01    0.517E-01
DAV:   4    -0.533850075186E+03    0.12829E-03   -0.39430E-03  2352   0.137E-01    0.459E-01
DAV:   5    -0.533849827528E+03    0.24766E-03   -0.50157E-03  2448   0.149E-01    0.276E-01
DAV:   6    -0.533849759806E+03    0.67723E-04   -0.21287E-03  2496   0.102E-01    0.103E-01
DAV:   7    -0.533849770041E+03   -0.10235E-04   -0.39087E-04  2544   0.490E-02    0.639E-02
DAV:   8    -0.533849783777E+03   -0.13736E-04   -0.11998E-04  2688   0.245E-02    0.446E-02
DAV:   9    -0.533849798645E+03   -0.14868E-04   -0.37515E-05  2544   0.130E-02    0.312E-02
DAV:  10    -0.533849824942E+03   -0.26297E-04   -0.30874E-05  2208   0.112E-02    0.142E-02
DAV:  11    -0.533849839794E+03   -0.14852E-04   -0.10970E-05  2496   0.790E-03    0.627E-03
DAV:  12    -0.533849847500E+03   -0.77061E-05   -0.19497E-06  1824   0.341E-03    0.493E-03
DAV:  13    -0.533849853455E+03   -0.59550E-05   -0.69862E-07  1248   0.227E-03    0.289E-03
DAV:  14    -0.533849860187E+03   -0.67322E-05   -0.35128E-07  1200   0.146E-03    0.184E-03
DAV:  15    -0.533849867476E+03   -0.72886E-05   -0.29906E-07  1248   0.128E-03    0.119E-03
DAV:  16    -0.533849872673E+03   -0.51979E-05   -0.18613E-07  1200   0.990E-04    0.700E-04
DAV:  17    -0.533849875608E+03   -0.29345E-05   -0.11388E-07  1104   0.819E-04    0.692E-04
DAV:  18    -0.533849878617E+03   -0.30087E-05   -0.11195E-07  1200   0.703E-04    0.487E-04
DAV:  19    -0.533849881377E+03   -0.27605E-05   -0.11305E-07  1152   0.682E-04    0.486E-04
DAV:  20    -0.533849883644E+03   -0.22665E-05   -0.10754E-07  1152   0.623E-04    0.429E-04
DAV:  21    -0.533849885906E+03   -0.22621E-05   -0.13855E-07  1152   0.625E-04    0.413E-04
DAV:  22    -0.533849887140E+03   -0.12338E-05   -0.92944E-08  1104   0.577E-04    0.381E-04
DAV:  23    -0.533849887788E+03   -0.64856E-06   -0.59677E-08  1104   0.513E-04
  13 F= -.53384989E+03 E0= -.53384988E+03  d E =-.932369E-01  mag=     6.9999
 curvature:  -0.96 expect dE=-0.137E+00 dE for cont linesearch -0.405E-07
 trial: gam= 0.63249 g(F)=  0.142E+00 g(S)=  0.000E+00 ort =-0.148E-03 (trialstep = 0.655E+00)
 search vector abs. value=  0.350E+00
 bond charge predicted
       N       E                     dE             d eps       ncg     rms          rms(c)
DAV:   1    -0.533813681400E+03    0.36206E-01   -0.37711E+01  1536   0.952E+00    0.179E+00
DAV:   2    -0.533903663644E+03   -0.89982E-01   -0.10002E+00  2160   0.200E+00    0.187E+00
DAV:   3    -0.533906787626E+03   -0.31240E-02   -0.81504E-02  2832   0.605E-01    0.133E+00
DAV:   4    -0.533905967755E+03    0.81987E-03   -0.33044E-02  2448   0.371E-01    0.111E+00
DAV:   5    -0.533904134873E+03    0.18329E-02   -0.34391E-02  2496   0.390E-01    0.613E-01
DAV:   6    -0.533903588084E+03    0.54679E-03   -0.13612E-02  2448   0.247E-01    0.289E-01
DAV:   7    -0.533903471083E+03    0.11700E-03   -0.29967E-03  2592   0.124E-01    0.159E-01
DAV:   8    -0.533903470032E+03    0.10507E-05   -0.86362E-04  2496   0.633E-02    0.925E-02
DAV:   9    -0.533903530171E+03   -0.60138E-04   -0.33028E-04  2640   0.375E-02    0.540E-02
DAV:  10    -0.533903638798E+03   -0.10863E-03   -0.15223E-04  2400   0.273E-02    0.272E-02
DAV:  11    -0.533903693939E+03   -0.55141E-04   -0.47111E-05  2496   0.166E-02    0.143E-02
DAV:  12    -0.533903737334E+03   -0.43395E-04   -0.13150E-05  2496   0.833E-03    0.102E-02
DAV:  13    -0.533903773711E+03   -0.36377E-04   -0.55311E-06  2112   0.539E-03    0.665E-03
DAV:  14    -0.533903800943E+03   -0.27232E-04   -0.25394E-06  1680   0.342E-03    0.374E-03
DAV:  15    -0.533903830023E+03   -0.29080E-04   -0.27303E-06  1680   0.249E-03    0.269E-03
DAV:  16    -0.533903844659E+03   -0.14635E-04   -0.83246E-07  1344   0.187E-03    0.199E-03
DAV:  17    -0.533903859360E+03   -0.14701E-04   -0.10765E-06  1392   0.160E-03    0.171E-03
DAV:  18    -0.533903876091E+03   -0.16732E-04   -0.19030E-06  1440   0.169E-03    0.156E-03
DAV:  19    -0.533903883812E+03   -0.77204E-05   -0.65828E-07  1344   0.130E-03    0.113E-03
DAV:  20    -0.533903891726E+03   -0.79140E-05   -0.94569E-07  1248   0.128E-03    0.922E-04
DAV:  21    -0.533903900050E+03   -0.83240E-05   -0.15687E-06  1296   0.134E-03    0.928E-04
DAV:  22    -0.533903904205E+03   -0.41548E-05   -0.76058E-07  1152   0.116E-03    0.859E-04
DAV:  23    -0.533903906615E+03   -0.24108E-05   -0.49877E-07  1104   0.996E-04    0.801E-04
DAV:  24    -0.533903909355E+03   -0.27396E-05   -0.10056E-06  1200   0.104E-03    0.759E-04
DAV:  25    -0.533903911507E+03   -0.21521E-05   -0.14654E-06  1200   0.106E-03    0.806E-04
DAV:  26    -0.533903912216E+03   -0.70901E-06   -0.38818E-07  1104   0.831E-04
  14 F= -.53390391E+03 E0= -.53390390E+03  d E =-.540244E-01  mag=     6.9999
 trial-energy change:   -0.054024  1 .order   -0.054042   -0.093095   -0.014989
 step:   0.7802(harm=  0.7802)  dis= 0.02868  next Energy=  -533.905368 (dE=-0.555E-01)
 bond charge predicted
       N       E                     dE             d eps       ncg     rms          rms(c)
DAV:   1    -0.533902056221E+03    0.18553E-02   -0.13893E+00  1536   0.182E+00    0.349E-01
DAV:   2    -0.533905260030E+03   -0.32038E-02   -0.36358E-02  2208   0.381E-01    0.367E-01
DAV:   3    -0.533905431672E+03   -0.17164E-03   -0.29015E-03  2832   0.113E-01    0.264E-01
DAV:   4    -0.533905422221E+03    0.94510E-05   -0.13082E-03  2448   0.742E-02    0.226E-01
DAV:   5    -0.533905330791E+03    0.91430E-04   -0.14138E-03  2496   0.786E-02    0.120E-01
DAV:   6    -0.533905316908E+03    0.13883E-04   -0.48825E-04  2448   0.469E-02    0.525E-02
DAV:   7    -0.533905318128E+03   -0.12206E-05   -0.10284E-04  2496   0.234E-02    0.311E-02
DAV:   8    -0.533905322050E+03   -0.39222E-05   -0.30452E-05  2592   0.123E-02    0.183E-02
DAV:   9    -0.533905330518E+03   -0.84672E-05   -0.12815E-05  2400   0.742E-03    0.109E-02
DAV:  10    -0.533905341380E+03   -0.10863E-04   -0.68846E-06  2160   0.578E-03    0.532E-03
DAV:  11    -0.533905346108E+03   -0.47281E-05   -0.17115E-06  1584   0.367E-03    0.326E-03
DAV:  12    -0.533905349594E+03   -0.34857E-05   -0.83680E-07  1200   0.226E-03    0.236E-03
DAV:  13    -0.533905353010E+03   -0.34162E-05   -0.68537E-07  1200   0.152E-03    0.160E-03
DAV:  14    -0.533905355510E+03   -0.24997E-05   -0.56140E-07  1248   0.124E-03    0.131E-03
DAV:  15    -0.533905357412E+03   -0.19024E-05   -0.43106E-07  1104   0.104E-03    0.101E-03
DAV:  16    -0.533905359682E+03   -0.22699E-05   -0.78640E-07  1152   0.102E-03    0.909E-04
DAV:  17    -0.533905361059E+03   -0.13767E-05   -0.46800E-07  1104   0.909E-04    0.861E-04
DAV:  18    -0.533905361943E+03   -0.88386E-06   -0.28463E-07  1104   0.759E-04
  15 F= -.53390536E+03 E0= -.53390535E+03  d E =-.554742E-01  mag=     6.9999
 curvature:  -0.96 expect dE=-0.161E+00 dE for cont linesearch -0.494E-07
 trial: gam= 1.16948 g(F)=  0.168E+00 g(S)=  0.000E+00 ort = 0.134E-03 (trialstep = 0.368E+00)
 search vector abs. value=  0.646E+00
 bond charge predicted
       N       E                     dE             d eps       ncg     rms          rms(c)
DAV:   1    -0.533899034909E+03    0.63262E-02   -0.22350E+01  1536   0.726E+00    0.998E-01
DAV:   2    -0.533950692987E+03   -0.51658E-01   -0.55061E-01  2064   0.150E+00    0.112E+00
DAV:   3    -0.533953322265E+03   -0.26293E-02   -0.37531E-02  2640   0.402E-01    0.776E-01
DAV:   4    -0.533952399578E+03    0.92269E-03   -0.98688E-03  2496   0.203E-01    0.588E-01
DAV:   5    -0.533952146976E+03    0.25260E-03   -0.71223E-03  2592   0.227E-01    0.299E-01
DAV:   6    -0.533951981976E+03    0.16500E-03   -0.30678E-03  2544   0.155E-01    0.156E-01
DAV:   7    -0.533952014345E+03   -0.32369E-04   -0.91034E-04  2352   0.696E-02    0.102E-01
DAV:   8    -0.533952011585E+03    0.27603E-05   -0.31134E-04  2928   0.371E-02    0.725E-02
DAV:   9    -0.533952017907E+03   -0.63224E-05   -0.14495E-04  2352   0.264E-02    0.501E-02
DAV:  10    -0.533952027242E+03   -0.93345E-05   -0.81666E-05  2592   0.214E-02    0.223E-02
DAV:  11    -0.533952045371E+03   -0.18130E-04   -0.26826E-05  2400   0.109E-02    0.135E-02
DAV:  12    -0.533952062449E+03   -0.17078E-04   -0.72678E-06  2304   0.576E-03    0.991E-03
DAV:  13    -0.533952077162E+03   -0.14712E-04   -0.21725E-06  1728   0.353E-03    0.570E-03
DAV:  14    -0.533952092502E+03   -0.15340E-04   -0.17770E-06  1344   0.274E-03    0.407E-03
DAV:  15    -0.533952107752E+03   -0.15250E-04   -0.19499E-06  1392   0.217E-03    0.238E-03
DAV:  16    -0.533952114895E+03   -0.71439E-05   -0.70318E-07  1200   0.159E-03    0.168E-03
DAV:  17    -0.533952120058E+03   -0.51625E-05   -0.49065E-07  1152   0.115E-03    0.134E-03
DAV:  18    -0.533952125950E+03   -0.58922E-05   -0.76492E-07  1152   0.111E-03    0.123E-03
DAV:  19    -0.533952131413E+03   -0.54633E-05   -0.91838E-07  1152   0.104E-03    0.108E-03
DAV:  20    -0.533952136370E+03   -0.49568E-05   -0.11589E-06  1200   0.106E-03    0.111E-03
DAV:  21    -0.533952138419E+03   -0.20491E-05   -0.31859E-07  1104   0.794E-04    0.102E-03
DAV:  22    -0.533952140977E+03   -0.25578E-05   -0.61868E-07  1152   0.809E-04    0.998E-04
DAV:  23    -0.533952144133E+03   -0.31559E-05   -0.15469E-06  1200   0.946E-04    0.987E-04
DAV:  24    -0.533952146947E+03   -0.28140E-05   -0.20959E-06  1200   0.103E-03    0.977E-04
DAV:  25    -0.533952149591E+03   -0.26441E-05   -0.47621E-06  1248   0.129E-03    0.967E-04
DAV:  26    -0.533952150441E+03   -0.84982E-06   -0.51875E-06  1296   0.135E-03
  16 F= -.53395215E+03 E0= -.53395215E+03  d E =-.467885E-01  mag=     6.9999
 trial-energy change:   -0.046788  1 .order   -0.046772   -0.061726   -0.031817
 step:   0.7589(harm=  0.7589)  dis= 0.03858  next Energy=  -533.969057 (dE=-0.637E-01)
 bond charge predicted
       N       E                     dE             d eps       ncg     rms          rms(c)
DAV:   1    -0.533908928590E+03    0.43221E-01   -0.25293E+01  1536   0.773E+00    0.106E+00
DAV:   2    -0.533967493556E+03   -0.58565E-01   -0.62369E-01  2016   0.160E+00    0.119E+00
DAV:   3    -0.533970597704E+03   -0.31041E-02   -0.43571E-02  2736   0.429E-01    0.826E-01
DAV:   4    -0.533969472511E+03    0.11252E-02   -0.10497E-02  2400   0.212E-01    0.624E-01
DAV:   5    -0.533969173526E+03    0.29899E-03   -0.82170E-03  2592   0.247E-01    0.317E-01
DAV:   6    -0.533968959678E+03    0.21385E-03   -0.33182E-03  2544   0.167E-01    0.159E-01
DAV:   7    -0.533968994510E+03   -0.34832E-04   -0.88740E-04  2448   0.722E-02    0.991E-02
DAV:   8    -0.533968995180E+03   -0.66981E-06   -0.28202E-04  2832   0.364E-02    0.709E-02
DAV:   9    -0.533969002606E+03   -0.74260E-05   -0.15579E-04  2448   0.250E-02    0.426E-02
DAV:  10    -0.533969018845E+03   -0.16240E-04   -0.82640E-05  2544   0.202E-02    0.250E-02
DAV:  11    -0.533969036234E+03   -0.17389E-04   -0.29673E-05  2448   0.114E-02    0.145E-02
DAV:  12    -0.533969052001E+03   -0.15766E-04   -0.67750E-06  2304   0.576E-03    0.927E-03
DAV:  13    -0.533969067154E+03   -0.15153E-04   -0.27580E-06  1824   0.359E-03    0.599E-03
DAV:  14    -0.533969082006E+03   -0.14852E-04   -0.20406E-06  1440   0.290E-03    0.418E-03
DAV:  15    -0.533969097693E+03   -0.15687E-04   -0.22555E-06  1392   0.219E-03    0.261E-03
DAV:  16    -0.533969105748E+03   -0.80555E-05   -0.91272E-07  1248   0.162E-03    0.172E-03
DAV:  17    -0.533969112055E+03   -0.63068E-05   -0.77632E-07  1152   0.125E-03    0.144E-03
DAV:  18    -0.533969118356E+03   -0.63010E-05   -0.10237E-06  1200   0.119E-03    0.139E-03
DAV:  19    -0.533969122724E+03   -0.43683E-05   -0.68177E-07  1152   0.102E-03    0.123E-03
DAV:  20    -0.533969128399E+03   -0.56746E-05   -0.16193E-06  1200   0.114E-03    0.119E-03
DAV:  21    -0.533969133112E+03   -0.47134E-05   -0.17352E-06  1248   0.110E-03    0.116E-03
DAV:  22    -0.533969137014E+03   -0.39017E-05   -0.19889E-06  1200   0.110E-03    0.113E-03
DAV:  23    -0.533969140660E+03   -0.36459E-05   -0.34510E-06  1200   0.124E-03    0.111E-03
DAV:  24    -0.533969143099E+03   -0.24389E-05   -0.40416E-06  1296   0.131E-03    0.113E-03
DAV:  25    -0.533969144088E+03   -0.98915E-06   -0.15915E-06  1200   0.959E-04
  17 F= -.53396914E+03 E0= -.53396914E+03  d E =-.637821E-01  mag=     7.0000
 curvature:  -1.46 expect dE=-0.207E+00 dE for cont linesearch -0.220E-06
 trial: gam= 0.85688 g(F)=  0.142E+00 g(S)=  0.000E+00 ort = 0.312E-03 (trialstep = 0.446E+00)
 search vector abs. value=  0.616E+00
 bond charge predicted
       N       E                     dE             d eps       ncg     rms          rms(c)
DAV:   1    -0.533943204201E+03    0.25939E-01   -0.31133E+01  1536   0.849E+00    0.137E+00
DAV:   2    -0.534013671285E+03   -0.70467E-01   -0.74475E-01  1968   0.168E+00    0.166E+00
DAV:   3    -0.534016937665E+03   -0.32664E-02   -0.52492E-02  2736   0.450E-01    0.130E+00
DAV:   4    -0.534016569647E+03    0.36802E-03   -0.17319E-02  2736   0.269E-01    0.117E+00
DAV:   5    -0.534014709060E+03    0.18606E-02   -0.25250E-02  2496   0.334E-01    0.638E-01
DAV:   6    -0.534014599318E+03    0.10974E-03   -0.10773E-02  2496   0.215E-01    0.320E-01
DAV:   7    -0.534014583009E+03    0.16309E-04   -0.33024E-03  2496   0.118E-01    0.210E-01
DAV:   8    -0.534014537537E+03    0.45472E-04   -0.94728E-04  2592   0.667E-02    0.131E-01
DAV:   9    -0.534014544496E+03   -0.69584E-05   -0.33946E-04  2640   0.368E-02    0.879E-02
DAV:  10    -0.534014599672E+03   -0.55176E-04   -0.24968E-04  2400   0.304E-02    0.447E-02
DAV:  11    -0.534014637935E+03   -0.38263E-04   -0.68375E-05  2448   0.192E-02    0.210E-02
DAV:  12    -0.534014666926E+03   -0.28992E-04   -0.24837E-05  2400   0.982E-03    0.148E-02
DAV:  13    -0.534014691505E+03   -0.24579E-04   -0.63500E-06  2256   0.605E-03    0.102E-02
DAV:  14    -0.534014718386E+03   -0.26881E-04   -0.36885E-06  1824   0.421E-03    0.676E-03
DAV:  15    -0.534014748850E+03   -0.30464E-04   -0.45339E-06  1872   0.331E-03    0.379E-03
DAV:  16    -0.534014761699E+03   -0.12849E-04   -0.10866E-06  1488   0.213E-03    0.243E-03
DAV:  17    -0.534014769978E+03   -0.82785E-05   -0.68362E-07  1200   0.150E-03    0.190E-03
DAV:  18    -0.534014782979E+03   -0.13001E-04   -0.15064E-06  1344   0.148E-03    0.170E-03
DAV:  19    -0.534014792792E+03   -0.98134E-05   -0.13145E-06  1152   0.136E-03    0.134E-03
DAV:  20    -0.534014799918E+03   -0.71259E-05   -0.11527E-06  1152   0.127E-03    0.120E-03
DAV:  21    -0.534014803077E+03   -0.31591E-05   -0.46117E-07  1104   0.104E-03    0.113E-03
DAV:  22    -0.534014805365E+03   -0.22874E-05   -0.36863E-07  1104   0.862E-04    0.110E-03
DAV:  23    -0.534014808164E+03   -0.27995E-05   -0.60953E-07  1104   0.865E-04    0.106E-03
DAV:  24    -0.534014813036E+03   -0.48719E-05   -0.23572E-06  1200   0.111E-03    0.103E-03
DAV:  25    -0.534014818205E+03   -0.51687E-05   -0.52745E-06  1296   0.144E-03    0.999E-04
DAV:  26    -0.534014820847E+03   -0.26417E-05   -0.51039E-06  1344   0.141E-03    0.103E-03
DAV:  27    -0.534014821386E+03   -0.53946E-06   -0.67083E-07  1104   0.846E-04
  18 F= -.53401482E+03 E0= -.53401482E+03  d E =-.456773E-01  mag=     7.0000
 trial-energy change:   -0.045677  1 .order   -0.045676   -0.063248   -0.028103
 step:   0.8025(harm=  0.8025)  dis= 0.03800  next Energy=  -534.026056 (dE=-0.569E-01)
 bond charge predicted
       N       E                     dE             d eps       ncg     rms          rms(c)
DAV:   1    -0.533980573230E+03    0.34248E-01   -0.19909E+01  1536   0.678E+00    0.108E+00
DAV:   2    -0.534024947337E+03   -0.44374E-01   -0.47096E-01  1920   0.134E+00    0.129E+00
DAV:   3    -0.534027384113E+03   -0.24368E-02   -0.35485E-02  2784   0.362E-01    0.101E+00
DAV:   4    -0.534027058463E+03    0.32565E-03   -0.10983E-02  2784   0.208E-01    0.900E-01
DAV:   5    -0.534025986393E+03    0.10721E-02   -0.15735E-02  2496   0.264E-01    0.462E-01
DAV:   6    -0.534025933641E+03    0.52752E-04   -0.75153E-03  2496   0.180E-01    0.260E-01
DAV:   7    -0.534025876362E+03    0.57279E-04   -0.21940E-03  2448   0.969E-02    0.155E-01
DAV:   8    -0.534025873936E+03    0.24255E-05   -0.63571E-04  2688   0.524E-02    0.997E-02
DAV:   9    -0.534025883443E+03   -0.95065E-05   -0.19962E-04  2640   0.288E-02    0.661E-02
DAV:  10    -0.534025932538E+03   -0.49096E-04   -0.16708E-04  2448   0.240E-02    0.341E-02
DAV:  11    -0.534025963056E+03   -0.30518E-04   -0.40693E-05  2448   0.148E-02    0.167E-02
DAV:  12    -0.534025983807E+03   -0.20751E-04   -0.14711E-05  2352   0.765E-03    0.119E-02
DAV:  13    -0.534026002651E+03   -0.18844E-04   -0.36472E-06  1968   0.465E-03    0.790E-03
DAV:  14    -0.534026024211E+03   -0.21560E-04   -0.29902E-06  1824   0.342E-03    0.526E-03
DAV:  15    -0.534026048151E+03   -0.23940E-04   -0.34512E-06  1680   0.264E-03    0.322E-03
DAV:  16    -0.534026058750E+03   -0.10599E-04   -0.10083E-06  1440   0.194E-03    0.211E-03
DAV:  17    -0.534026064413E+03   -0.56638E-05   -0.47090E-07  1200   0.126E-03    0.152E-03
DAV:  18    -0.534026074221E+03   -0.98079E-05   -0.11827E-06  1152   0.126E-03    0.137E-03
DAV:  19    -0.534026082094E+03   -0.78728E-05   -0.12841E-06  1344   0.124E-03    0.126E-03
DAV:  20    -0.534026085950E+03   -0.38560E-05   -0.52660E-07  1104   0.100E-03    0.105E-03
DAV:  21    -0.534026089333E+03   -0.33826E-05   -0.63915E-07  1152   0.892E-04    0.103E-03
DAV:  22    -0.534026092576E+03   -0.32429E-05   -0.79654E-07  1104   0.877E-04    0.963E-04
DAV:  23    -0.534026096204E+03   -0.36287E-05   -0.16514E-06  1200   0.975E-04    0.102E-03
DAV:  24    -0.534026097541E+03   -0.13365E-05   -0.40961E-07  1104   0.735E-04    0.994E-04
DAV:  25    -0.534026098512E+03   -0.97075E-06   -0.33185E-07  1104   0.625E-04
  19 F= -.53402610E+03 E0= -.53402610E+03  d E =-.569544E-01  mag=     7.0000
 curvature:  -1.74 expect dE=-0.296E+00 dE for cont linesearch -0.188E-06
 trial: gam= 1.18559 g(F)=  0.170E+00 g(S)=  0.000E+00 ort = 0.257E-03 (trialstep = 0.308E+00)
 search vector abs. value=  0.104E+01
 bond charge predicted
       N       E                     dE             d eps       ncg     rms          rms(c)
DAV:   1    -0.534008678879E+03    0.17419E-01   -0.24932E+01  1536   0.763E+00    0.117E+00
DAV:   2    -0.534064895722E+03   -0.56217E-01   -0.60328E-01  1920   0.152E+00    0.107E+00
DAV:   3    -0.534067964717E+03   -0.30690E-02   -0.48287E-02  2832   0.448E-01    0.690E-01
DAV:   4    -0.534067260106E+03    0.70461E-03   -0.14658E-02  2640   0.243E-01    0.581E-01
DAV:   5    -0.534066610018E+03    0.65009E-03   -0.13604E-02  2544   0.236E-01    0.410E-01
DAV:   6    -0.534066298154E+03    0.31186E-03   -0.47594E-03  2448   0.140E-01    0.134E-01
DAV:   7    -0.534066389365E+03   -0.91211E-04   -0.10483E-03  2448   0.679E-02    0.875E-02
DAV:   8    -0.534066438023E+03   -0.48658E-04   -0.36496E-04  2736   0.417E-02    0.577E-02
DAV:   9    -0.534066497588E+03   -0.59565E-04   -0.12656E-04  2544   0.235E-02    0.334E-02
DAV:  10    -0.534066586764E+03   -0.89176E-04   -0.64835E-05  2352   0.164E-02    0.183E-02
DAV:  11    -0.534066628220E+03   -0.41455E-04   -0.17898E-05  2496   0.101E-02    0.852E-03
DAV:  12    -0.534066657016E+03   -0.28796E-04   -0.73602E-06  2352   0.556E-03    0.618E-03
DAV:  13    -0.534066678976E+03   -0.21960E-04   -0.18334E-06  1584   0.330E-03    0.436E-03
DAV:  14    -0.534066698805E+03   -0.19829E-04   -0.15159E-06  1296   0.226E-03    0.282E-03
DAV:  15    -0.534066721730E+03   -0.22925E-04   -0.20216E-06  1584   0.202E-03    0.209E-03
DAV:  16    -0.534066736823E+03   -0.15093E-04   -0.11304E-06  1296   0.167E-03    0.151E-03
DAV:  17    -0.534066746526E+03   -0.97037E-05   -0.71770E-07  1152   0.127E-03    0.135E-03
DAV:  18    -0.534066757912E+03   -0.11385E-04   -0.12330E-06  1296   0.126E-03    0.124E-03
DAV:  19    -0.534066766315E+03   -0.84033E-05   -0.96098E-07  1152   0.109E-03    0.111E-03
DAV:  20    -0.534066775126E+03   -0.88109E-05   -0.16507E-06  1248   0.118E-03    0.109E-03
DAV:  21    -0.534066783156E+03   -0.80302E-05   -0.24365E-06  1248   0.123E-03    0.107E-03
DAV:  22    -0.534066787008E+03   -0.38517E-05   -0.13396E-06  1152   0.108E-03    0.101E-03
DAV:  23    -0.534066790473E+03   -0.34657E-05   -0.24468E-06  1248   0.115E-03    0.102E-03
DAV:  24    -0.534066792427E+03   -0.19538E-05   -0.24611E-06  1200   0.117E-03    0.102E-03
DAV:  25    -0.534066792968E+03   -0.54075E-06   -0.61317E-07  1104   0.808E-04
  20 F= -.53406679E+03 E0= -.53406679E+03  d E =-.406945E-01  mag=     7.0000
 trial-energy change:   -0.040694  1 .order   -0.040662   -0.052292   -0.029032
 step:   0.6914(harm=  0.6914)  dis= 0.04285  next Energy=  -534.084878 (dE=-0.588E-01)
 bond charge predicted
       N       E                     dE             d eps       ncg     rms          rms(c)
DAV:   1    -0.533993546776E+03    0.73246E-01   -0.38828E+01  1536   0.950E+00    0.146E+00
DAV:   2    -0.534081785174E+03   -0.88238E-01   -0.94380E-01  1920   0.190E+00    0.129E+00
DAV:   3    -0.534086774973E+03   -0.49898E-02   -0.78184E-02  2880   0.550E-01    0.861E-01
DAV:   4    -0.534085720949E+03    0.10540E-02   -0.22534E-02  2592   0.296E-01    0.729E-01
DAV:   5    -0.534084606136E+03    0.11148E-02   -0.20563E-02  2544   0.290E-01    0.489E-01
DAV:   6    -0.534084179887E+03    0.42625E-03   -0.73360E-03  2400   0.175E-01    0.179E-01
DAV:   7    -0.534084307145E+03   -0.12726E-03   -0.17337E-03  2400   0.882E-02    0.114E-01
DAV:   8    -0.534084362947E+03   -0.55802E-04   -0.60258E-04  2784   0.543E-02    0.745E-02
DAV:   9    -0.534084431659E+03   -0.68712E-04   -0.20140E-04  2592   0.289E-02    0.416E-02
DAV:  10    -0.534084537568E+03   -0.10591E-03   -0.96655E-05  2448   0.199E-02    0.239E-02
DAV:  11    -0.534084591777E+03   -0.54208E-04   -0.27447E-05  2448   0.125E-02    0.110E-02
DAV:  12    -0.534084629153E+03   -0.37376E-04   -0.11419E-05  2304   0.719E-03    0.791E-03
DAV:  13    -0.534084656012E+03   -0.26859E-04   -0.30775E-06  1824   0.430E-03    0.546E-03
DAV:  14    -0.534084681465E+03   -0.25453E-04   -0.21913E-06  1536   0.265E-03    0.345E-03
DAV:  15    -0.534084709892E+03   -0.28427E-04   -0.24278E-06  1584   0.230E-03    0.250E-03
DAV:  16    -0.534084730913E+03   -0.21021E-04   -0.16727E-06  1296   0.179E-03    0.172E-03
DAV:  17    -0.534084744540E+03   -0.13628E-04   -0.11547E-06  1296   0.153E-03    0.155E-03
DAV:  18    -0.534084757241E+03   -0.12700E-04   -0.12593E-06  1248   0.134E-03    0.132E-03
DAV:  19    -0.534084771391E+03   -0.14151E-04   -0.22253E-06  1296   0.142E-03    0.126E-03
DAV:  20    -0.534084780473E+03   -0.90814E-05   -0.16803E-06  1200   0.130E-03    0.120E-03
DAV:  21    -0.534084786985E+03   -0.65121E-05   -0.15374E-06  1200   0.119E-03    0.114E-03
DAV:  22    -0.534084794043E+03   -0.70582E-05   -0.30976E-06  1296   0.137E-03    0.112E-03
DAV:  23    -0.534084798078E+03   -0.40349E-05   -0.27649E-06  1296   0.130E-03    0.111E-03
DAV:  24    -0.534084799621E+03   -0.15429E-05   -0.11110E-06  1104   0.989E-04    0.109E-03
DAV:  25    -0.534084800542E+03   -0.92154E-06   -0.10435E-06  1104   0.894E-04
  21 F= -.53408480E+03 E0= -.53408479E+03  d E =-.587020E-01  mag=     6.9999
 curvature:  -2.11 expect dE=-0.180E+00 dE for cont linesearch -0.137E-05
 trial: gam= 0.49311 g(F)=  0.852E-01 g(S)=  0.000E+00 ort =-0.822E-03 (trialstep = 0.384E+00)
 search vector abs. value=  0.336E+00
 bond charge predicted
       N       E                     dE             d eps       ncg     rms          rms(c)
DAV:   1    -0.534078870734E+03    0.59289E-02   -0.12991E+01  1536   0.557E+00    0.838E-01
DAV:   2    -0.534108913227E+03   -0.30042E-01   -0.31858E-01  1968   0.109E+00    0.855E-01
DAV:   3    -0.534110219115E+03   -0.13059E-02   -0.19456E-02  2496   0.293E-01    0.578E-01
DAV:   4    -0.534110106912E+03    0.11220E-03   -0.74956E-03  2688   0.186E-01    0.489E-01
DAV:   5    -0.534109603501E+03    0.50341E-03   -0.69243E-03  2592   0.180E-01    0.259E-01
DAV:   6    -0.534109592971E+03    0.10531E-04   -0.21496E-03  2400   0.965E-02    0.132E-01
DAV:   7    -0.534109595790E+03   -0.28196E-05   -0.63773E-04  2496   0.526E-02    0.768E-02
DAV:   8    -0.534109606452E+03   -0.10662E-04   -0.19029E-04  2736   0.265E-02    0.466E-02
DAV:   9    -0.534109617056E+03   -0.10604E-04   -0.44736E-05  2448   0.138E-02    0.242E-02
DAV:  10    -0.534109627937E+03   -0.10880E-04   -0.33372E-05  2448   0.124E-02    0.138E-02
DAV:  11    -0.534109637779E+03   -0.98423E-05   -0.10779E-05  2400   0.801E-03    0.644E-03
DAV:  12    -0.534109647271E+03   -0.94920E-05   -0.41434E-06  2160   0.412E-03    0.496E-03
DAV:  13    -0.534109654417E+03   -0.71455E-05   -0.13695E-06  1632   0.243E-03    0.315E-03
DAV:  14    -0.534109663865E+03   -0.94479E-05   -0.24424E-06  1392   0.187E-03    0.209E-03
DAV:  15    -0.534109669559E+03   -0.56948E-05   -0.14206E-06  1200   0.160E-03    0.160E-03
DAV:  16    -0.534109673056E+03   -0.34966E-05   -0.91879E-07  1152   0.118E-03    0.136E-03
DAV:  17    -0.534109675544E+03   -0.24879E-05   -0.71168E-07  1152   0.103E-03    0.125E-03
DAV:  18    -0.534109678192E+03   -0.26486E-05   -0.10502E-06  1104   0.949E-04    0.118E-03
DAV:  19    -0.534109681910E+03   -0.37172E-05   -0.28257E-06  1344   0.121E-03    0.118E-03
DAV:  20    -0.534109683703E+03   -0.17936E-05   -0.10013E-06  1104   0.895E-04    0.115E-03
DAV:  21    -0.534109684804E+03   -0.11009E-05   -0.62020E-07  1104   0.755E-04    0.113E-03
DAV:  22    -0.534109686635E+03   -0.18310E-05   -0.24745E-06  1200   0.103E-03    0.113E-03
DAV:  23    -0.534109687793E+03   -0.11581E-05   -0.15524E-06  1152   0.916E-04    0.113E-03
DAV:  24    -0.534109688293E+03   -0.49954E-06   -0.44311E-07  1104   0.644E-04
  22 F= -.53410969E+03 E0= -.53410968E+03  d E =-.248878E-01  mag=     6.9999
 trial-energy change:   -0.024888  1 .order   -0.024881   -0.032588   -0.017174
 step:   0.8125(harm=  0.8125)  dis= 0.03115  next Energy=  -534.119250 (dE=-0.344E-01)
 bond charge predicted
       N       E                     dE             d eps       ncg     rms          rms(c)
DAV:   1    -0.534080848059E+03    0.28840E-01   -0.16133E+01  1536   0.621E+00    0.949E-01
DAV:   2    -0.534118449905E+03   -0.37602E-01   -0.39794E-01  1920   0.122E+00    0.974E-01
DAV:   3    -0.534120029647E+03   -0.15797E-02   -0.24243E-02  2448   0.330E-01    0.658E-01
DAV:   4    -0.534119951385E+03    0.78262E-04   -0.98547E-03  2784   0.214E-01    0.564E-01
DAV:   5    -0.534119269819E+03    0.68157E-03   -0.88807E-03  2496   0.202E-01    0.298E-01
DAV:   6    -0.534119256784E+03    0.13036E-04   -0.28105E-03  2400   0.110E-01    0.153E-01
DAV:   7    -0.534119256236E+03    0.54738E-06   -0.87603E-04  2496   0.614E-02    0.896E-02
DAV:   8    -0.534119268823E+03   -0.12587E-04   -0.23436E-04  2496   0.297E-02    0.524E-02
DAV:   9    -0.534119282758E+03   -0.13935E-04   -0.61848E-05  2592   0.159E-02    0.281E-02
DAV:  10    -0.534119294234E+03   -0.11476E-04   -0.42560E-05  2448   0.139E-02    0.154E-02
DAV:  11    -0.534119305536E+03   -0.11303E-04   -0.14598E-05  2400   0.928E-03    0.762E-03
DAV:  12    -0.534119316010E+03   -0.10473E-04   -0.59586E-06  2400   0.496E-03    0.570E-03
DAV:  13    -0.534119323596E+03   -0.75865E-05   -0.17232E-06  1776   0.273E-03    0.367E-03
DAV:  14    -0.534119334538E+03   -0.10942E-04   -0.29298E-06  1392   0.208E-03    0.231E-03
DAV:  15    -0.534119341119E+03   -0.65808E-05   -0.17960E-06  1248   0.173E-03    0.176E-03
DAV:  16    -0.534119344539E+03   -0.34203E-05   -0.87566E-07  1152   0.126E-03    0.144E-03
DAV:  17    -0.534119347144E+03   -0.26050E-05   -0.73260E-07  1104   0.106E-03    0.131E-03
DAV:  18    -0.534119350266E+03   -0.31220E-05   -0.13394E-06  1296   0.103E-03    0.128E-03
DAV:  19    -0.534119353801E+03   -0.35347E-05   -0.21509E-06  1200   0.112E-03    0.120E-03
DAV:  20    -0.534119356450E+03   -0.26487E-05   -0.20286E-06  1200   0.107E-03    0.121E-03
DAV:  21    -0.534119358633E+03   -0.21832E-05   -0.22112E-06  1200   0.107E-03    0.117E-03
DAV:  22    -0.534119360390E+03   -0.17574E-05   -0.25065E-06  1200   0.109E-03    0.117E-03
DAV:  23    -0.534119361674E+03   -0.12837E-05   -0.23104E-06  1152   0.105E-03    0.114E-03
DAV:  24    -0.534119362861E+03   -0.11875E-05   -0.55079E-06  1440   0.137E-03    0.116E-03
DAV:  25    -0.534119363507E+03   -0.64523E-06   -0.78265E-06  1248   0.154E-03
  23 F= -.53411936E+03 E0= -.53411935E+03  d E =-.345630E-01  mag=     6.9999
 curvature:  -1.61 expect dE=-0.181E+00 dE for cont linesearch -0.951E-06
 trial: gam= 1.30095 g(F)=  0.112E+00 g(S)=  0.000E+00 ort = 0.446E-03 (trialstep = 0.232E+00)
 search vector abs. value=  0.683E+00
 bond charge predicted
       N       E                     dE             d eps       ncg     rms          rms(c)
DAV:   1    -0.534119985579E+03   -0.62272E-03   -0.93399E+00  1536   0.465E+00    0.691E-01
DAV:   2    -0.534140551138E+03   -0.20566E-01   -0.21848E-01  1632   0.885E-01    0.594E-01
DAV:   3    -0.534141454385E+03   -0.90325E-03   -0.14156E-02  2352   0.246E-01    0.369E-01
DAV:   4    -0.534141448032E+03    0.63531E-05   -0.61121E-03  2832   0.159E-01    0.352E-01
DAV:   5    -0.534141089212E+03    0.35882E-03   -0.37236E-03  2496   0.127E-01    0.176E-01
DAV:   6    -0.534141123240E+03   -0.34028E-04   -0.12429E-03  2400   0.731E-02    0.865E-02
DAV:   7    -0.534141148297E+03   -0.25057E-04   -0.36665E-04  2640   0.411E-02    0.497E-02
DAV:   8    -0.534141163774E+03   -0.15477E-04   -0.10673E-04  2688   0.224E-02    0.313E-02
DAV:   9    -0.534141183071E+03   -0.19297E-04   -0.47258E-05  2496   0.137E-02    0.213E-02
DAV:  10    -0.534141192660E+03   -0.95887E-05   -0.23230E-05  2688   0.942E-03    0.106E-02
DAV:  11    -0.534141201008E+03   -0.83475E-05   -0.65312E-06  2304   0.517E-03    0.541E-03
DAV:  12    -0.534141205814E+03   -0.48064E-05   -0.18196E-06  1728   0.300E-03    0.400E-03
DAV:  13    -0.534141210243E+03   -0.44286E-05   -0.14248E-06  1296   0.217E-03    0.261E-03
DAV:  14    -0.534141214903E+03   -0.46606E-05   -0.19188E-06  1392   0.168E-03    0.183E-03
DAV:  15    -0.534141218079E+03   -0.31758E-05   -0.10660E-06  1152   0.139E-03    0.148E-03
DAV:  16    -0.534141219968E+03   -0.18890E-05   -0.56046E-07  1104   0.103E-03    0.129E-03
DAV:  17    -0.534141222463E+03   -0.24950E-05   -0.11378E-06  1152   0.102E-03    0.125E-03
DAV:  18    -0.534141224839E+03   -0.23761E-05   -0.14298E-06  1104   0.101E-03    0.118E-03
DAV:  19    -0.534141227237E+03   -0.23982E-05   -0.21318E-06  1200   0.107E-03    0.121E-03
DAV:  20    -0.534141227838E+03   -0.60101E-06   -0.28516E-07  1104   0.699E-04
  24 F= -.53414123E+03 E0= -.53414122E+03  d E =-.218643E-01  mag=     6.9999
 trial-energy change:   -0.021864  1 .order   -0.021864   -0.026076   -0.017652
 step:   0.7171(harm=  0.7171)  dis= 0.03901  next Energy=  -534.159722 (dE=-0.404E-01)
 bond charge predicted
       N       E                     dE             d eps       ncg     rms          rms(c)
DAV:   1    -0.534065480396E+03    0.75747E-01   -0.40989E+01  1536   0.973E+00    0.145E+00
DAV:   2    -0.534158315789E+03   -0.92835E-01   -0.97801E-01  1728   0.186E+00    0.124E+00
DAV:   3    -0.534161222918E+03   -0.29071E-02   -0.60113E-02  2496   0.513E-01    0.771E-01
DAV:   4    -0.534160983757E+03    0.23916E-03   -0.24756E-02  2688   0.320E-01    0.730E-01
DAV:   5    -0.534159529691E+03    0.14541E-02   -0.16498E-02  2592   0.270E-01    0.374E-01
DAV:   6    -0.534159582378E+03   -0.52687E-04   -0.54020E-03  2400   0.155E-01    0.174E-01
DAV:   7    -0.534159651058E+03   -0.68681E-04   -0.16258E-03  2592   0.899E-02    0.106E-01
DAV:   8    -0.534159681738E+03   -0.30680E-04   -0.42634E-04  2784   0.471E-02    0.626E-02
DAV:   9    -0.534159746498E+03   -0.64760E-04   -0.21379E-04  2448   0.296E-02    0.457E-02
DAV:  10    -0.534159780310E+03   -0.33812E-04   -0.95377E-05  2736   0.200E-02    0.206E-02
DAV:  11    -0.534159809458E+03   -0.29148E-04   -0.25433E-05  2400   0.107E-02    0.118E-02
DAV:  12    -0.534159827042E+03   -0.17584E-04   -0.77912E-06  2352   0.656E-03    0.832E-03
DAV:  13    -0.534159843142E+03   -0.16100E-04   -0.41379E-06  1872   0.406E-03    0.510E-03
DAV:  14    -0.534159860325E+03   -0.17184E-04   -0.41337E-06  1584   0.308E-03    0.314E-03
DAV:  15    -0.534159871484E+03   -0.11159E-04   -0.22946E-06  1296   0.230E-03    0.239E-03
DAV:  16    -0.534159878016E+03   -0.65322E-05   -0.12105E-06  1200   0.169E-03    0.189E-03
DAV:  17    -0.534159885160E+03   -0.71438E-05   -0.17315E-06  1200   0.152E-03    0.165E-03
DAV:  18    -0.534159892413E+03   -0.72533E-05   -0.23258E-06  1200   0.150E-03    0.162E-03
DAV:  19    -0.534159898571E+03   -0.61580E-05   -0.24016E-06  1248   0.144E-03    0.151E-03
DAV:  20    -0.534159903966E+03   -0.53947E-05   -0.28138E-06  1200   0.144E-03    0.148E-03
DAV:  21    -0.534159909369E+03   -0.54035E-05   -0.50315E-06  1488   0.161E-03    0.147E-03
DAV:  22    -0.534159912564E+03   -0.31943E-05   -0.32371E-06  1200   0.133E-03    0.146E-03
DAV:  23    -0.534159915346E+03   -0.27820E-05   -0.42145E-06  1200   0.136E-03    0.143E-03
DAV:  24    -0.534159917971E+03   -0.26252E-05   -0.11727E-05  1344   0.197E-03    0.142E-03
DAV:  25    -0.534159918567E+03   -0.59611E-06   -0.16631E-05  1488   0.228E-03    0.143E-03
DAV:  26    -0.534159918849E+03   -0.28242E-06   -0.94697E-06  1248   0.181E-03
  25 F= -.53415992E+03 E0= -.53415990E+03  d E =-.405553E-01  mag=     6.9998
 curvature:  -2.17 expect dE=-0.184E+00 dE for cont linesearch -0.240E-05
 trial: gam= 0.77683 g(F)=  0.845E-01 g(S)=  0.000E+00 ort = 0.867E-03 (trialstep = 0.329E+00)
 search vector abs. value=  0.498E+00
 bond charge predicted
       N       E                     dE             d eps       ncg     rms          rms(c)
DAV:   1    -0.534151024251E+03    0.88943E-02   -0.13861E+01  1536   0.565E+00    0.888E-01
DAV:   2    -0.534182556993E+03   -0.31533E-01   -0.33115E-01  1728   0.106E+00    0.746E-01
DAV:   3    -0.534183727702E+03   -0.11707E-02   -0.17973E-02  2448   0.276E-01    0.473E-01
[...]
 bond charge predicted
       N       E                     dE             d eps       ncg     rms          rms(c)
DAV:   1    -0.538076765644E+03    0.75853E-03   -0.57764E-01  1536   0.116E+00    0.177E-01
DAV:   2    -0.538077977744E+03   -0.12121E-02   -0.12956E-02  1872   0.221E-01    0.165E-01
DAV:   3    -0.538078057423E+03   -0.79680E-04   -0.84449E-04  2592   0.561E-02    0.118E-01
DAV:   4    -0.538078050576E+03    0.68472E-05   -0.38189E-04  2688   0.421E-02    0.891E-02
DAV:   5    -0.538078042172E+03    0.84043E-05   -0.18093E-04  2544   0.370E-02    0.355E-02
DAV:   6    -0.538078047431E+03   -0.52590E-05   -0.90948E-05  2448   0.248E-02    0.238E-02
DAV:   7    -0.538078046734E+03    0.69668E-06   -0.22668E-05  2592   0.136E-02    0.106E-02
DAV:   8    -0.538078048846E+03   -0.21121E-05   -0.45609E-06  2160   0.529E-03    0.738E-03
DAV:   9    -0.538078050487E+03   -0.16411E-05   -0.20202E-06  1728   0.352E-03    0.494E-03
DAV:  10    -0.538078051532E+03   -0.10450E-05   -0.12559E-06  1488   0.301E-03    0.239E-03
DAV:  11    -0.538078052143E+03   -0.61088E-06   -0.60664E-07  1152   0.206E-03
 173 F= -.53807805E+03 E0= -.53807805E+03  d E =-.527512E-03  mag=     5.0000
 trial-energy change:   -0.000528  1 .order   -0.000519   -0.000758   -0.000279
 step:   0.8695(harm=  0.9181)  dis= 0.00528  next Energy=  -538.078123 (dE=-0.598E-03)
 bond charge predicted
       N       E                     dE             d eps       ncg     rms          rms(c)
DAV:   1    -0.538077819463E+03    0.23207E-03   -0.14358E-01  1536   0.579E-01    0.878E-02
DAV:   2    -0.538078114517E+03   -0.29505E-03   -0.32118E-03  1872   0.111E-01    0.833E-02
DAV:   3    -0.538078137050E+03   -0.22532E-04   -0.21260E-04  2592   0.282E-02    0.591E-02
DAV:   4    -0.538078136361E+03    0.68901E-06   -0.99828E-05  2688   0.215E-02    0.448E-02
DAV:   5    -0.538078135479E+03    0.88185E-06   -0.47914E-05  2544   0.190E-02    0.181E-02
DAV:   6    -0.538078137394E+03   -0.19155E-05   -0.23896E-05  2448   0.126E-02    0.120E-02
DAV:   7    -0.538078137627E+03   -0.23274E-06   -0.58881E-06  2400   0.680E-03
 174 F= -.53807814E+03 E0= -.53807814E+03  d E =-.612995E-03  mag=     5.0000
 curvature:  -2.34 expect dE=-0.288E-02 dE for cont linesearch -0.199E-05
 trial: gam= 0.90254 g(F)=  0.123E-02 g(S)=  0.000E+00 ort = 0.760E-04 (trialstep = 0.628E+00)
 search vector abs. value=  0.690E-02
 bond charge predicted
       N       E                     dE             d eps       ncg     rms          rms(c)
DAV:   1    -0.538077199662E+03    0.93773E-03   -0.67843E-01  1536   0.125E+00    0.195E-01
DAV:   2    -0.538078612606E+03   -0.14129E-02   -0.15291E-02  2064   0.243E-01    0.163E-01
DAV:   3    -0.538078676461E+03   -0.63855E-04   -0.91688E-04  2304   0.622E-02    0.107E-01
DAV:   4    -0.538078667081E+03    0.93803E-05   -0.44013E-04  2736   0.451E-02    0.811E-02
DAV:   5    -0.538078657463E+03    0.96174E-05   -0.19016E-04  2592   0.365E-02    0.349E-02
DAV:   6    -0.538078660588E+03   -0.31248E-05   -0.87438E-05  2592   0.236E-02    0.226E-02
DAV:   7    -0.538078661348E+03   -0.75983E-06   -0.23365E-05  2592   0.119E-02    0.112E-02
DAV:   8    -0.538078664182E+03   -0.28337E-05   -0.52565E-06  2256   0.544E-03    0.753E-03
DAV:   9    -0.538078668005E+03   -0.38232E-05   -0.21577E-06  1728   0.380E-03    0.497E-03
DAV:  10    -0.538078671391E+03   -0.33862E-05   -0.10765E-06  1536   0.299E-03    0.267E-03
DAV:  11    -0.538078673884E+03   -0.24927E-05   -0.58535E-07  1152   0.204E-03    0.163E-03
DAV:  12    -0.538078675449E+03   -0.15652E-05   -0.28650E-07  1152   0.141E-03    0.121E-03
DAV:  13    -0.538078677038E+03   -0.15891E-05   -0.24444E-07  1104   0.111E-03    0.954E-04
DAV:  14    -0.538078678418E+03   -0.13805E-05   -0.21694E-07  1104   0.974E-04    0.838E-04
DAV:  15    -0.538078679676E+03   -0.12574E-05   -0.22041E-07  1104   0.836E-04    0.694E-04
DAV:  16    -0.538078680813E+03   -0.11372E-05   -0.24505E-07  1104   0.806E-04    0.633E-04
DAV:  17    -0.538078681818E+03   -0.10047E-05   -0.27663E-07  1104   0.769E-04    0.601E-04
DAV:  18    -0.538078682666E+03   -0.84832E-06   -0.29242E-07  1104   0.744E-04
 175 F= -.53807868E+03 E0= -.53807868E+03  d E =-.545039E-03  mag=     5.0000
 trial-energy change:   -0.000545  1 .order   -0.000537   -0.000818   -0.000256
 step:   0.8828(harm=  0.9142)  dis= 0.00471  next Energy=  -538.078735 (dE=-0.598E-03)
 bond charge predicted
       N       E                     dE             d eps       ncg     rms          rms(c)
DAV:   1    -0.538078497874E+03    0.18394E-03   -0.11200E-01  1536   0.509E-01    0.789E-02
DAV:   2    -0.538078724560E+03   -0.22669E-03   -0.25184E-03  2064   0.990E-02    0.663E-02
DAV:   3    -0.538078737152E+03   -0.12592E-04   -0.15093E-04  2304   0.252E-02    0.437E-02
DAV:   4    -0.538078735992E+03    0.11599E-05   -0.74302E-05  2736   0.186E-02    0.330E-02
DAV:   5    -0.538078735377E+03    0.61477E-06   -0.31115E-05  2592   0.151E-02    0.142E-02
DAV:   6    -0.538078736402E+03   -0.10243E-05   -0.14291E-05  2544   0.976E-03    0.921E-03
DAV:   7    -0.538078736815E+03   -0.41372E-06   -0.31419E-06  1872   0.496E-03
 176 F= -.53807874E+03 E0= -.53807874E+03  d E =-.599189E-03  mag=     5.0000
 curvature:  -2.39 expect dE=-0.229E-02 dE for cont linesearch -0.342E-06
 trial: gam= 0.85668 g(F)=  0.956E-03 g(S)=  0.000E+00 ort = 0.314E-04 (trialstep = 0.679E+00)
 search vector abs. value=  0.607E-02
 bond charge predicted
       N       E                     dE             d eps       ncg     rms          rms(c)
DAV:   1    -0.538077592336E+03    0.11441E-02   -0.69366E-01  1536   0.126E+00    0.200E-01
DAV:   2    -0.538079012113E+03   -0.14198E-02   -0.15178E-02  1824   0.242E-01    0.177E-01
DAV:   3    -0.538079120956E+03   -0.10884E-03   -0.10532E-03  2496   0.650E-02    0.119E-01
DAV:   4    -0.538079110882E+03    0.10074E-04   -0.47222E-04  2832   0.437E-02    0.919E-02
DAV:   5    -0.538079107353E+03    0.35286E-05   -0.22569E-04  2592   0.352E-02    0.371E-02
DAV:   6    -0.538079114641E+03   -0.72874E-05   -0.10488E-04  2496   0.249E-02    0.283E-02
DAV:   7    -0.538079113820E+03    0.82057E-06   -0.31180E-05  2592   0.135E-02    0.116E-02
DAV:   8    -0.538079115611E+03   -0.17908E-05   -0.65022E-06  2400   0.625E-03    0.900E-03
DAV:   9    -0.538079116927E+03   -0.13155E-05   -0.30508E-06  1872   0.455E-03    0.554E-03
DAV:  10    -0.538079117688E+03   -0.76184E-06   -0.11053E-06  1536   0.305E-03
 177 F= -.53807912E+03 E0= -.53807912E+03  d E =-.380873E-03  mag=     5.0000
 trial-energy change:   -0.000381  1 .order   -0.000363   -0.000667   -0.000060
 step:   0.7354(harm=  0.7460)  dis= 0.00308  next Energy=  -538.079120 (dE=-0.383E-03)
 bond charge predicted
       N       E                     dE             d eps       ncg     rms          rms(c)
DAV:   1    -0.538079111166E+03    0.57605E-05   -0.48462E-03  1536   0.105E-01    0.166E-02
DAV:   2    -0.538079120843E+03   -0.96769E-05   -0.10888E-04  1824   0.210E-02    0.148E-02
DAV:   3    -0.538079122443E+03   -0.16002E-05   -0.83705E-06  2496   0.561E-03    0.102E-02
DAV:   4    -0.538079122626E+03   -0.18254E-06   -0.29976E-06  1536   0.408E-03    0.733E-03
DAV:   5    -0.538079123198E+03   -0.57263E-06   -0.16442E-06  1344   0.328E-03    0.342E-03
DAV:   6    -0.538079123462E+03   -0.26346E-06   -0.65438E-07  1152   0.243E-03
 178 F= -.53807912E+03 E0= -.53807912E+03  d E =-.386646E-03  mag=     5.0000
 curvature:  -2.25 expect dE=-0.167E-02 dE for cont linesearch -0.314E-06
 trial: gam= 0.76321 g(F)=  0.740E-03 g(S)=  0.000E+00 ort = 0.291E-04 (trialstep = 0.690E+00)
 search vector abs. value=  0.432E-02
 bond charge predicted
       N       E                     dE             d eps       ncg     rms          rms(c)
DAV:   1    -0.538078408633E+03    0.71457E-03   -0.50759E-01  1536   0.108E+00    0.162E-01
DAV:   2    -0.538079436609E+03   -0.10280E-02   -0.11202E-02  1920   0.208E-01    0.132E-01
DAV:   3    -0.538079523008E+03   -0.86400E-04   -0.82841E-04  2496   0.599E-02    0.840E-02
DAV:   4    -0.538079523591E+03   -0.58328E-06   -0.35379E-04  2784   0.393E-02    0.713E-02
DAV:   5    -0.538079515400E+03    0.81910E-05   -0.16854E-04  2496   0.307E-02    0.344E-02
DAV:   6    -0.538079521600E+03   -0.61998E-05   -0.82915E-05  2544   0.212E-02    0.239E-02
DAV:   7    -0.538079522199E+03   -0.59918E-06   -0.22620E-05  2592   0.110E-02    0.896E-03
DAV:   8    -0.538079524136E+03   -0.19367E-05   -0.36493E-06  2016   0.476E-03    0.658E-03
DAV:   9    -0.538079525366E+03   -0.12295E-05   -0.14883E-06  1680   0.334E-03    0.414E-03
DAV:  10    -0.538079526038E+03   -0.67242E-06   -0.79363E-07  1440   0.234E-03
 179 F= -.53807953E+03 E0= -.53807953E+03  d E =-.402576E-03  mag=     5.0000
 trial-energy change:   -0.000403  1 .order   -0.000396   -0.000526   -0.000266
 step:   1.2466(harm=  1.3953)  dis= 0.00388  next Energy=  -538.079637 (dE=-0.513E-03)
 bond charge predicted
       N       E                     dE             d eps       ncg     rms          rms(c)
DAV:   1    -0.538078940661E+03    0.58471E-03   -0.33027E-01  1536   0.869E-01    0.131E-01
DAV:   2    -0.538079604604E+03   -0.66394E-03   -0.72886E-03  1920   0.168E-01    0.106E-01
DAV:   3    -0.538079663156E+03   -0.58552E-04   -0.53976E-04  2496   0.483E-02    0.680E-02
DAV:   4    -0.538079663402E+03   -0.24579E-06   -0.23017E-04  2784   0.316E-02    0.575E-02
DAV:   5    -0.538079658369E+03    0.50330E-05   -0.11027E-04  2496   0.248E-02    0.276E-02
DAV:   6    -0.538079662784E+03   -0.44151E-05   -0.54525E-05  2544   0.172E-02    0.193E-02
DAV:   7    -0.538079663462E+03   -0.67836E-06   -0.14883E-05  2592   0.891E-03    0.726E-03
DAV:   8    -0.538079665006E+03   -0.15434E-05   -0.20617E-06  1728   0.388E-03    0.554E-03
DAV:   9    -0.538079666023E+03   -0.10171E-05   -0.11987E-06  1632   0.276E-03    0.327E-03
DAV:  10    -0.538079666696E+03   -0.67336E-06   -0.62051E-07  1152   0.192E-03
 180 F= -.53807967E+03 E0= -.53807967E+03  d E =-.543234E-03  mag=     5.0000
 curvature:  -3.78 expect dE=-0.246E-02 dE for cont linesearch -0.746E-05
 trial: gam= 0.76734 g(F)=  0.650E-03 g(S)=  0.000E+00 ort = 0.924E-04 (trialstep = 0.801E+00)
 search vector abs. value=  0.334E-02
 bond charge predicted
       N       E                     dE             d eps       ncg     rms          rms(c)
DAV:   1    -0.538078801909E+03    0.86411E-03   -0.53024E-01  1536   0.112E+00    0.172E-01
DAV:   2    -0.538079923359E+03   -0.11214E-02   -0.12318E-02  1920   0.220E-01    0.150E-01
DAV:   3    -0.538080005135E+03   -0.81777E-04   -0.86084E-04  2352   0.607E-02    0.103E-01
DAV:   4    -0.538080005688E+03   -0.55309E-06   -0.40637E-04  2832   0.410E-02    0.771E-02
DAV:   5    -0.538080001008E+03    0.46800E-05   -0.19180E-04  2592   0.320E-02    0.403E-02
DAV:   6    -0.538080007338E+03   -0.63298E-05   -0.10755E-04  2496   0.235E-02    0.264E-02
DAV:   7    -0.538080005391E+03    0.19471E-05   -0.34585E-05  2592   0.132E-02    0.113E-02
DAV:   8    -0.538080005896E+03   -0.50524E-06   -0.60842E-06  2256   0.556E-03
 181 F= -.53808001E+03 E0= -.53808001E+03  d E =-.339200E-03  mag=     5.0000
 trial-energy change:   -0.000339  1 .order   -0.000335   -0.000578   -0.000092
 step:   0.9437(harm=  0.9528)  dis= 0.00262  next Energy=  -538.080014 (dE=-0.347E-03)
 bond charge predicted
       N       E                     dE             d eps       ncg     rms          rms(c)
DAV:   1    -0.538079975135E+03    0.30256E-04   -0.16755E-02  1536   0.199E-01    0.315E-02
DAV:   2    -0.538080009577E+03   -0.34442E-04   -0.41203E-04  1920   0.403E-02    0.270E-02
DAV:   3    -0.538080014270E+03   -0.46935E-05   -0.30321E-05  2496   0.115E-02    0.190E-02
DAV:   4    -0.538080014961E+03   -0.69065E-06   -0.13653E-05  2736   0.767E-03    0.143E-02
DAV:   5    -0.538080015491E+03   -0.52982E-06   -0.70196E-06  2304   0.663E-03    0.881E-03
DAV:   6    -0.538080015874E+03   -0.38376E-06   -0.34700E-06  1872   0.483E-03
 182 F= -.53808002E+03 E0= -.53808002E+03  d E =-.349178E-03  mag=     5.0000
 curvature:  -2.20 expect dE=-0.162E-02 dE for cont linesearch -0.276E-07
 trial: gam= 1.29851 g(F)=  0.739E-03 g(S)=  0.000E+00 ort = 0.648E-05 (trialstep = 0.434E+00)
 search vector abs. value=  0.638E-02
 bond charge predicted
       N       E                     dE             d eps       ncg     rms          rms(c)
DAV:   1    -0.538079543309E+03    0.47218E-03   -0.29934E-01  1536   0.849E-01    0.119E-01
DAV:   2    -0.538080180139E+03   -0.63683E-03   -0.69411E-03  1872   0.167E-01    0.100E-01
DAV:   3    -0.538080253937E+03   -0.73798E-04   -0.54055E-04  2640   0.447E-02    0.664E-02
DAV:   4    -0.538080251067E+03    0.28699E-05   -0.17305E-04  2832   0.265E-02    0.554E-02
DAV:   5    -0.538080249492E+03    0.15743E-05   -0.80103E-05  2544   0.197E-02    0.229E-02
DAV:   6    -0.538080255042E+03   -0.55495E-05   -0.55795E-05  2496   0.152E-02    0.180E-02
DAV:   7    -0.538080254177E+03    0.86457E-06   -0.15146E-05  2496   0.871E-03    0.707E-03
DAV:   8    -0.538080254894E+03   -0.71643E-06   -0.18323E-06  1776   0.361E-03
 183 F= -.53808025E+03 E0= -.53808025E+03  d E =-.239019E-03  mag=     5.0000
 trial-energy change:   -0.000239  1 .order   -0.000236   -0.000324   -0.000149
 step:   0.8010(harm=  0.8010)  dis= 0.00338  next Energy=  -538.080315 (dE=-0.299E-03)
 bond charge predicted
       N       E                     dE             d eps       ncg     rms          rms(c)
DAV:   1    -0.538079812363E+03    0.44181E-03   -0.21441E-01  1536   0.719E-01    0.101E-01
DAV:   2    -0.538080267290E+03   -0.45493E-03   -0.50104E-03  1872   0.142E-01    0.852E-02
DAV:   3    -0.538080322725E+03   -0.55434E-04   -0.39316E-04  2640   0.379E-02    0.567E-02
DAV:   4    -0.538080320695E+03    0.20295E-05   -0.13268E-04  2688   0.228E-02    0.474E-02
DAV:   5    -0.538080320112E+03    0.58360E-06   -0.58371E-05  2544   0.166E-02    0.200E-02
DAV:   6    -0.538080324577E+03   -0.44649E-05   -0.43631E-05  2448   0.132E-02    0.159E-02
DAV:   7    -0.538080323985E+03    0.59177E-06   -0.12244E-05  2448   0.776E-03    0.615E-03
DAV:   8    -0.538080324697E+03   -0.71256E-06   -0.14054E-06  1680   0.317E-03
 184 F= -.53808032E+03 E0= -.53808032E+03  d E =-.308823E-03  mag=     5.0000
 curvature:  -3.42 expect dE=-0.182E-02 dE for cont linesearch -0.510E-07
 trial: gam= 0.58066 g(F)=  0.533E-03 g(S)=  0.000E+00 ort = 0.975E-05 (trialstep = 0.507E+00)
 search vector abs. value=  0.270E-02
 bond charge predicted
       N       E                     dE             d eps       ncg     rms          rms(c)
DAV:   1    -0.538080128134E+03    0.19585E-03   -0.16602E-01  1536   0.608E-01    0.121E-01
DAV:   2    -0.538080463100E+03   -0.33497E-03   -0.38265E-03  2016   0.124E-01    0.934E-02
DAV:   3    -0.538080499612E+03   -0.36511E-04   -0.30598E-04  2592   0.366E-02    0.562E-02
DAV:   4    -0.538080500434E+03   -0.82237E-06   -0.13364E-04  2496   0.238E-02    0.386E-02
DAV:   5    -0.538080499250E+03    0.11846E-05   -0.74931E-05  2688   0.195E-02    0.214E-02
DAV:   6    -0.538080500987E+03   -0.17374E-05   -0.30244E-05  2496   0.121E-02    0.117E-02
DAV:   7    -0.538080501599E+03   -0.61237E-06   -0.78616E-06  2304   0.623E-03
 185 F= -.53808050E+03 E0= -.53808050E+03  d E =-.176902E-03  mag=     5.0000
 trial-energy change:   -0.000177  1 .order   -0.000175   -0.000273   -0.000078
 step:   0.7084(harm=  0.7084)  dis= 0.00191  next Energy=  -538.080515 (dE=-0.191E-03)
 bond charge predicted
       N       E                     dE             d eps       ncg     rms          rms(c)
DAV:   1    -0.538080459563E+03    0.41424E-04   -0.26086E-02  1536   0.241E-01    0.483E-02
DAV:   2    -0.538080510382E+03   -0.50820E-04   -0.61153E-04  2016   0.501E-02    0.375E-02
DAV:   3    -0.538080519067E+03   -0.86851E-05   -0.52922E-05  2736   0.157E-02    0.227E-02
DAV:   4    -0.538080519935E+03   -0.86773E-06   -0.20303E-05  2400   0.101E-02    0.159E-02
DAV:   5    -0.538080520057E+03   -0.12224E-06   -0.11662E-05  2688   0.855E-03    0.854E-03
DAV:   6    -0.538080520445E+03   -0.38747E-06   -0.40054E-06  2064   0.507E-03
 186 F= -.53808052E+03 E0= -.53808052E+03  d E =-.195747E-03  mag=     5.0000
 curvature:  -1.77 expect dE=-0.807E-03 dE for cont linesearch -0.168E-07
 trial: gam= 0.86098 g(F)=  0.455E-03 g(S)=  0.000E+00 ort = 0.505E-05 (trialstep = 0.548E+00)
 search vector abs. value=  0.246E-02
 bond charge predicted
       N       E                     dE             d eps       ncg     rms          rms(c)
DAV:   1    -0.538080260722E+03    0.25934E-03   -0.18192E-01  1536   0.650E-01    0.103E-01
DAV:   2    -0.538080632103E+03   -0.37138E-03   -0.42823E-03  1920   0.134E-01    0.105E-01
DAV:   3    -0.538080683865E+03   -0.51763E-04   -0.39714E-04  2640   0.409E-02    0.725E-02
DAV:   4    -0.538080684745E+03   -0.87971E-06   -0.16655E-04  2736   0.247E-02    0.614E-02
DAV:   5    -0.538080679468E+03    0.52773E-05   -0.98851E-05  2544   0.207E-02    0.263E-02
DAV:   6    -0.538080683327E+03   -0.38592E-05   -0.53261E-05  2448   0.150E-02    0.178E-02
DAV:   7    -0.538080683158E+03    0.16890E-06   -0.16265E-05  2592   0.861E-03    0.760E-03
DAV:   8    -0.538080684378E+03   -0.12198E-05   -0.20826E-06  1728   0.403E-03    0.540E-03
DAV:   9    -0.538080685657E+03   -0.12795E-05   -0.85271E-07  1536   0.278E-03    0.408E-03
DAV:  10    -0.538080687227E+03   -0.15692E-05   -0.71840E-07  1248   0.186E-03    0.187E-03
DAV:  11    -0.538080688119E+03   -0.89184E-06   -0.37833E-07  1152   0.160E-03
 187 F= -.53808069E+03 E0= -.53808069E+03  d E =-.167674E-03  mag=     5.0000
 trial-energy change:   -0.000168  1 .order   -0.000165   -0.000251   -0.000079
 step:   0.7981(harm=  0.7981)  dis= 0.00165  next Energy=  -538.080704 (dE=-0.183E-03)
 bond charge predicted
       N       E                     dE             d eps       ncg     rms          rms(c)
DAV:   1    -0.538080619145E+03    0.68082E-04   -0.38116E-02  1536   0.298E-01    0.474E-02
DAV:   2    -0.538080694054E+03   -0.74910E-04   -0.90417E-04  1968   0.616E-02    0.482E-02
DAV:   3    -0.538080707049E+03   -0.12995E-04   -0.86523E-05  2832   0.182E-02    0.334E-02
DAV:   4    -0.538080707094E+03   -0.44747E-07   -0.33979E-05  2592   0.111E-02    0.286E-02
DAV:   5    -0.538080706512E+03    0.58240E-06   -0.22867E-05  2496   0.993E-03    0.121E-02
DAV:   6    -0.538080707605E+03   -0.10934E-05   -0.11720E-05  2400   0.706E-03    0.797E-03
DAV:   7    -0.538080707807E+03   -0.20202E-06   -0.28284E-06  1872   0.407E-03
 188 F= -.53808071E+03 E0= -.53808071E+03  d E =-.187362E-03  mag=     5.0000
 curvature:  -2.14 expect dE=-0.589E-03 dE for cont linesearch -0.931E-08
 trial: gam= 0.60860 g(F)=  0.275E-03 g(S)=  0.000E+00 ort = 0.327E-05 (trialstep = 0.598E+00)
 search vector abs. value=  0.119E-02
 bond charge predicted
       N       E                     dE             d eps       ncg     rms          rms(c)
DAV:   1    -0.538080588196E+03    0.11941E-03   -0.10585E-01  1536   0.500E-01    0.714E-02
DAV:   2    -0.538080802485E+03   -0.21429E-03   -0.24881E-03  1920   0.100E-01    0.569E-02
DAV:   3    -0.538080832292E+03   -0.29807E-04   -0.18501E-04  2496   0.269E-02    0.360E-02
DAV:   4    -0.538080831111E+03    0.11817E-05   -0.65581E-05  2688   0.160E-02    0.283E-02
DAV:   5    -0.538080830812E+03    0.29905E-06   -0.20084E-05  2544   0.119E-02    0.140E-02
DAV:   6    -0.538080832977E+03   -0.21648E-05   -0.10985E-05  2448   0.937E-03    0.104E-02
DAV:   7    -0.538080833098E+03   -0.12147E-06   -0.34694E-06  2112   0.591E-03
 189 F= -.53808083E+03 E0= -.53808083E+03  d E =-.125291E-03  mag=     5.0000
 trial-energy change:   -0.000125  1 .order   -0.000125   -0.000166   -0.000084
 step:   1.2113(harm=  1.2113)  dis= 0.00168  next Energy=  -538.080876 (dE=-0.168E-03)
 reached required accuracy - stopping structural energy minimisation
