<?xml version="1.0" encoding="ISO-8859-1"?>
<modeling>
 <generator>
  <i name="program" type="string">vasp </i>
  <i name="version" type="string">6.4.3  </i>
  <i name="subversion" type="string">19Mar24 (build Mar 01 2025 18:03:59) gamma-only                       parallel </i>
  <i name="platform" type="string">Shaheen </i>
  <i name="date" type="string">2025 04 25 </i>
  <i name="time" type="string">16:42:47 </i>
 </generator>
 <incar>
  <i type="int" name="ISTART">     1</i>
  <i type="string" name="PREC">Accurate   (Precision level: Normal or Accurate, set Accurate when perform structure lattice relaxation calculation)</i>
  <i type="logical" name="ADDGRID"> T  </i>
  <i type="int" name="ISPIN">     2</i>
  <i type="int" name="NELM">    90</i>
  <i type="int" name="NELMIN">     6</i>
  <i type="int" name="IBRION">     2</i>
  <i name="EDIFF">      0.00000100</i>
  <i name="EDIFFG">     -0.02000000</i>
  <i type="int" name="NSW">   300</i>
  <i type="int" name="ISIF">     2</i>
  <i name="ENCUT">    520.00000000</i>
  <v name="MAGMOM">      1.00000000      1.00000000      1.00000000      1.00000000      1.00000000      1.00000000      1.00000000      1.00000000      1.00000000      1.00000000      1.00000000      1.00000000      1.00000000      1.00000000      1.00000000      1.00000000      1.00000000      1.00000000      0.60000000      0.60000000
      0.60000000      0.60000000      0.60000000      0.60000000      0.60000000      0.60000000      0.60000000      0.60000000      0.60000000      0.60000000      0.60000000      0.60000000      0.60000000      0.60000000      0.60000000      0.60000000      0.60000000      0.60000000      0.60000000      0.60000000
      0.60000000      0.60000000      0.60000000      0.60000000      0.60000000      0.60000000      0.60000000      0.60000000      0.60000000      0.60000000      0.60000000      0.60000000      0.60000000      0.60000000      0.60000000      0.60000000      0.60000000      0.60000000      0.60000000      0.60000000
      0.60000000      0.60000000      0.60000000      0.60000000      0.60000000      0.60000000      0.60000000      0.60000000      0.60000000      0.60000000      0.60000000      0.60000000      0.60000000</v>
  <i type="logical" name="LREAL"> F  </i>
  <i type="int" name="ISMEAR">     0</i>
  <i name="SIGMA">      0.05000000</i>
  <i type="int" name="LMAXMIX">     6</i>
  <i type="logical" name="LWAVE"> F  </i>
  <i type="logical" name="LCHARG"> F  </i>
  <i type="logical" name="LASPH"> T  </i>
  <i type="logical" name="LDAU"> T  </i>
  <i type="int" name="LDAUTYPE">     2</i>
  <v type="int" name="LDAUL">     3    -1     2</v>
  <v name="LDAUU">      5.00000000      0.00000000      2.00000000</v>
  <v name="LDAUJ">      0.00000000      0.00000000      0.00000000</v>
 </incar>
 <primitive_cell>
  <structure name="primitive_cell" >
   <crystal>
    <varray name="basis" >
     <v>      11.59819984       0.00000000       0.00000000 </v>
     <v>      -5.79909992      10.04433570       0.00000000 </v>
     <v>       0.00000000       0.00000000      21.04820061 </v>
    </varray>
    <i name="volume">   2452.03565684 </i>
    <varray name="rec_basis" >
     <v>       0.08622028       0.04977930       0.00000000 </v>
     <v>       0.00000000       0.09955860       0.00000000 </v>
     <v>       0.00000000       0.00000000       0.04751000 </v>
    </varray>
   </crystal>
   <varray name="positions" >
    <v>       0.00306000       0.99701000       0.45904000 </v>
    <v>       0.22222000       0.11111000       0.30996000 </v>
    <v>       0.32549000       0.99694000       0.46156000 </v>
    <v>       0.55556000       0.11111000       0.30996000 </v>
    <v>       0.66956000       0.00575000       0.46395000 </v>
    <v>       0.88889000       0.11111000       0.30996000 </v>
    <v>       0.99429000       0.33043000       0.46388000 </v>
    <v>       0.22222000       0.44444000       0.30996000 </v>
    <v>       0.33282000       0.33388000       0.45848000 </v>
    <v>       0.55556000       0.44444000       0.30996000 </v>
    <v>       0.67135000       0.32877000       0.45654000 </v>
    <v>       0.88889000       0.44444000       0.30996000 </v>
    <v>       0.00316000       0.67453000       0.46154000 </v>
    <v>       0.22222000       0.77778000       0.30996000 </v>
    <v>       0.33406000       0.66594000       0.45975000 </v>
    <v>       0.55556000       0.77778000       0.30996000 </v>
    <v>       0.66613000       0.66721000       0.45873000 </v>
    <v>       0.88889000       0.77778000       0.30996000 </v>
    <v>       0.00565000       0.99485000       0.58210000 </v>
    <v>       0.11111000       0.22222000       0.27247000 </v>
    <v>       0.22656000       0.11765000       0.42160000 </v>
    <v>       0.10918000       0.21885000       0.50297000 </v>
    <v>       0.00000000       0.00000000       0.34745000 </v>
    <v>       0.33556000       0.03161000       0.57938000 </v>
    <v>       0.44444000       0.22222000       0.27247000 </v>
    <v>       0.55030000       0.10727000       0.42191000 </v>
    <v>       0.45382000       0.23523000       0.50060000 </v>
    <v>       0.33333000       0.00000000       0.34745000 </v>
    <v>       0.64283000       0.98322000       0.57804000 </v>
    <v>       0.77778000       0.22222000       0.27247000 </v>
    <v>       0.89158000       0.10857000       0.42339000 </v>
    <v>       0.77761000       0.22235000       0.49035000 </v>
    <v>       0.66667000       0.00000000       0.34745000 </v>
    <v>       0.01630000       0.35688000       0.57800000 </v>
    <v>       0.11111000       0.55556000       0.27247000 </v>
    <v>       0.21763000       0.43414000       0.42280000 </v>
    <v>       0.10806000       0.56205000       0.50220000 </v>
    <v>       1.00000000       0.33333000       0.34745000 </v>
    <v>       0.31656000       0.34768000       0.59359000 </v>
    <v>       0.44444000       0.55556000       0.27247000 </v>
    <v>       0.55458000       0.44564000       0.42043000 </v>
    <v>       0.44686000       0.55242000       0.50293000 </v>
    <v>       0.33333000       0.33333000       0.34745000 </v>
    <v>       0.65920000       0.34118000       0.59127000 </v>
    <v>       0.77778000       0.55556000       0.27247000 </v>
    <v>       0.89277000       0.44965000       0.42186000 </v>
    <v>       0.76508000       0.54608000       0.50064000 </v>
    <v>       0.66667000       0.33333000       0.34745000 </v>
    <v>       0.96990000       0.66367000       0.57908000 </v>
    <v>       0.11111000       0.88889000       0.27247000 </v>
    <v>       0.22044000       0.77962000       0.42116000 </v>
    <v>       0.11038000       0.88973000       0.48834000 </v>
    <v>       1.00000000       0.66667000       0.34745000 </v>
    <v>       0.30517000       0.69453000       0.59704000 </v>
    <v>       0.44444000       0.88889000       0.27247000 </v>
    <v>       0.56586000       0.78233000       0.42294000 </v>
    <v>       0.43772000       0.89209000       0.50232000 </v>
    <v>       0.33333000       0.66667000       0.34745000 </v>
    <v>       0.65422000       0.68098000       0.59145000 </v>
    <v>       0.77778000       0.88889000       0.27247000 </v>
    <v>       0.88226000       0.77347000       0.42165000 </v>
    <v>       0.78140000       0.89145000       0.50298000 </v>
    <v>       0.66667000       0.66667000       0.34745000 </v>
    <v>       0.42925000       0.58667000       0.65283000 </v>
    <v>       0.54415000       0.47272000       0.67255000 </v>
    <v>       0.57066000       0.45780000       0.52863000 </v>
    <v>       0.48481000       0.51415000       0.58780000 </v>
    <v>       0.15960000       0.17340000       0.58377000 </v>
    <v>       0.49288000       0.18566000       0.58271000 </v>
    <v>       0.81547000       0.50671000       0.58253000 </v>
    <v>       0.82744000       0.84064000       0.58339000 </v>
    <v>       0.47311000       0.84632000       0.58615000 </v>
    <v>       0.15355000       0.52643000       0.58607000 </v>
   </varray>
  </structure>
  <varray name="primitive_index" >
   <v type="int" >        1 </v>
   <v type="int" >        2 </v>
   <v type="int" >        3 </v>
   <v type="int" >        4 </v>
   <v type="int" >        5 </v>
   <v type="int" >        6 </v>
   <v type="int" >        7 </v>
   <v type="int" >        8 </v>
   <v type="int" >        9 </v>
   <v type="int" >       10 </v>
   <v type="int" >       11 </v>
   <v type="int" >       12 </v>
   <v type="int" >       13 </v>
   <v type="int" >       14 </v>
   <v type="int" >       15 </v>
   <v type="int" >       16 </v>
   <v type="int" >       17 </v>
   <v type="int" >       18 </v>
   <v type="int" >       19 </v>
   <v type="int" >       20 </v>
   <v type="int" >       21 </v>
   <v type="int" >       22 </v>
   <v type="int" >       23 </v>
   <v type="int" >       24 </v>
   <v type="int" >       25 </v>
   <v type="int" >       26 </v>
   <v type="int" >       27 </v>
   <v type="int" >       28 </v>
   <v type="int" >       29 </v>
   <v type="int" >       30 </v>
   <v type="int" >       31 </v>
   <v type="int" >       32 </v>
   <v type="int" >       33 </v>
   <v type="int" >       34 </v>
   <v type="int" >       35 </v>
   <v type="int" >       36 </v>
   <v type="int" >       37 </v>
   <v type="int" >       38 </v>
   <v type="int" >       39 </v>
   <v type="int" >       40 </v>
   <v type="int" >       41 </v>
   <v type="int" >       42 </v>
   <v type="int" >       43 </v>
   <v type="int" >       44 </v>
   <v type="int" >       45 </v>
   <v type="int" >       46 </v>
   <v type="int" >       47 </v>
   <v type="int" >       48 </v>
   <v type="int" >       49 </v>
   <v type="int" >       50 </v>
   <v type="int" >       51 </v>
   <v type="int" >       52 </v>
   <v type="int" >       53 </v>
   <v type="int" >       54 </v>
   <v type="int" >       55 </v>
   <v type="int" >       56 </v>
   <v type="int" >       57 </v>
   <v type="int" >       58 </v>
   <v type="int" >       59 </v>
   <v type="int" >       60 </v>
   <v type="int" >       61 </v>
   <v type="int" >       62 </v>
   <v type="int" >       63 </v>
   <v type="int" >       64 </v>
   <v type="int" >       65 </v>
   <v type="int" >       66 </v>
   <v type="int" >       67 </v>
   <v type="int" >       68 </v>
   <v type="int" >       69 </v>
   <v type="int" >       70 </v>
   <v type="int" >       71 </v>
   <v type="int" >       72 </v>
   <v type="int" >       73 </v>
  </varray>
 </primitive_cell>
 <kpoints>
  <generation param="Gamma">
   <v type="int" name="divisions">       1        1        1 </v>
   <v name="usershift">      0.00000000       0.00000000       0.00000000 </v>
   <v name="genvec1">      1.00000000      -0.00000000       0.00000000 </v>
   <v name="genvec2">      0.00000000       1.00000000       0.00000000 </v>
   <v name="genvec3">      0.00000000       0.00000000       1.00000000 </v>
   <v name="shift">      0.00000000       0.00000000       0.00000000 </v>
  </generation>
  <varray name="kpointlist" >
   <v>       0.00000000       0.00000000       0.00000000 </v>
  </varray>
  <varray name="weights" >
   <v>       1.00000000 </v>
  </varray>
 </kpoints>
 <parameters>
  <separator name="general" >
   <i type="string" name="SYSTEM">unknown system</i>
   <i type="logical" name="LCOMPAT"> F  </i>
  </separator>
  <separator name="electronic" >
   <i type="string" name="PREC">accura</i>
   <i name="ENMAX">    520.00000000</i>
   <i name="ENAUG">    605.39200000</i>
   <i name="EDIFF">      0.00000100</i>
   <i type="int" name="IALGO">    38</i>
   <i type="int" name="IWAVPR">    11</i>
   <i type="int" name="NBANDS">   384</i>
   <i type="int" name="NBANDSLOW">    -1</i>
   <i type="int" name="NBANDSHIGH">    -1</i>
   <i name="NELECT">    567.00000000</i>
   <i type="int" name="TURBO">     0</i>
   <i type="int" name="IRESTART">     0</i>
   <i type="int" name="NREBOOT">     0</i>
   <i type="int" name="NMIN">     0</i>
   <i name="EREF">      0.00000000</i>
   <separator name="electronic smearing" >
    <i type="int" name="ISMEAR">     0</i>
    <i name="SIGMA">      0.05000000</i>
    <i name="KSPACING">      0.50000000</i>
    <i type="logical" name="KGAMMA"> T  </i>
    <i type="logical" name="KBLOWUP"> T  </i>
   </separator>
   <separator name="electronic projectors" >
    <i type="logical" name="LREAL"> F  </i>
    <v name="ROPT">      0.00000000      0.00000000      0.00000000</v>
    <i type="int" name="LMAXPAW">  -100</i>
    <i type="int" name="LMAXMIX">     6</i>
    <i type="logical" name="NLSPLINE"> F  </i>
   </separator>
   <separator name="electronic startup" >
    <i type="int" name="ISTART">     0</i>
    <i type="int" name="ICHARG">     2</i>
    <i type="int" name="INIWAV">     1</i>
   </separator>
   <separator name="electronic spin" >
    <i type="int" name="ISPIN">     2</i>
    <i type="logical" name="LNONCOLLINEAR"> F  </i>
    <v name="MAGMOM">      1.00000000      1.00000000      1.00000000      1.00000000      1.00000000      1.00000000      1.00000000      1.00000000      1.00000000      1.00000000      1.00000000      1.00000000      1.00000000      1.00000000      1.00000000      1.00000000      1.00000000      1.00000000      0.60000000      0.60000000
      0.60000000      0.60000000      0.60000000      0.60000000      0.60000000      0.60000000      0.60000000      0.60000000      0.60000000      0.60000000      0.60000000      0.60000000      0.60000000      0.60000000      0.60000000      0.60000000      0.60000000      0.60000000      0.60000000      0.60000000
      0.60000000      0.60000000      0.60000000      0.60000000      0.60000000      0.60000000      0.60000000      0.60000000      0.60000000      0.60000000      0.60000000      0.60000000      0.60000000      0.60000000      0.60000000      0.60000000      0.60000000      0.60000000      0.60000000      0.60000000
      0.60000000      0.60000000      0.60000000      0.60000000      0.60000000      0.60000000      0.60000000      0.60000000      0.60000000      0.60000000      0.60000000      0.60000000      0.60000000</v>
    <i name="NUPDOWN">     -1.00000000</i>
    <i type="logical" name="LSORBIT"> F  </i>
    <v name="SAXIS">      0.00000000      0.00000000      1.00000000</v>
    <i type="logical" name="LSPIRAL"> F  </i>
    <v name="QSPIRAL">      0.00000000      0.00000000      0.00000000</v>
    <i type="logical" name="LZEROZ"> F  </i>
   </separator>
   <separator name="electronic exchange-correlation" >
    <i type="logical" name="LASPH"> T  </i>
   </separator>
   <separator name="electronic convergence" >
    <i type="int" name="NELM">    90</i>
    <i type="int" name="NELMDL">     0</i>
    <i type="int" name="NELMIN">     6</i>
    <i name="ENINI">    520.00000000</i>
    <separator name="electronic convergence detail" >
     <i type="logical" name="LDIAG"> T  </i>
     <i type="logical" name="LSUBROT"> F  </i>
     <i name="WEIMIN">      0.00100000</i>
     <i name="EBREAK">      0.00000000</i>
     <i name="DEPER">      0.30000000</i>
     <i type="int" name="NRMM">     4</i>
     <i name="TIME">      0.40000000</i>
    </separator>
   </separator>
   <separator name="electronic mixer" >
    <i name="AMIX">      0.40000000</i>
    <i name="BMIX">      1.00000000</i>
    <i name="AMIN">      0.10000000</i>
    <i name="AMIX_MAG">      1.60000000</i>
    <i name="BMIX_MAG">      1.00000000</i>
    <separator name="electronic mixer details" >
     <i type="int" name="IMIX">     4</i>
     <i type="logical" name="MIXFIRST"> F  </i>
     <i type="int" name="MAXMIX">   -45</i>
     <i name="WC">    100.00000000</i>
     <i type="int" name="INIMIX">     1</i>
     <i type="int" name="MIXPRE">     1</i>
     <i type="int" name="MREMOVE">     5</i>
    </separator>
   </separator>
   <separator name="electronic dipolcorrection" >
    <i type="logical" name="LDIPOL"> F  </i>
    <i type="logical" name="LMONO"> F  </i>
    <i type="int" name="IDIPOL">     0</i>
    <i name="EPSILON">      1.00000000</i>
    <v name="DIPOL">   -100.00000000   -100.00000000   -100.00000000</v>
    <i name="EFIELD">      0.00000000</i>
    <i type="logical" name="LVACPOTAV"> F  </i>
   </separator>
  </separator>
  <separator name="grids" >
   <i type="int" name="NGX">    90</i>
   <i type="int" name="NGY">    90</i>
   <i type="int" name="NGZ">   160</i>
   <i type="int" name="NGXF">   180</i>
   <i type="int" name="NGYF">   180</i>
   <i type="int" name="NGZF">   320</i>
   <i type="logical" name="ADDGRID"> T  </i>
  </separator>
  <separator name="ionic" >
   <i type="int" name="NSW">   300</i>
   <i type="int" name="IBRION">     2</i>
   <i type="int" name="MDALGO">     0</i>
   <i type="int" name="ISIF">     2</i>
   <i name="PSTRESS">      0.00000000</i>
   <i name="EDIFFG">     -0.02000000</i>
   <i type="int" name="NFREE">     1</i>
   <i name="POTIM">      0.50000000</i>
   <i name="SMASS">     -3.00000000</i>
   <i name="SCALEE">      1.00000000</i>
  </separator>
  <separator name="ionic md" >
   <i name="TEBEG">      0.00010000</i>
   <i name="TEEND">      0.00010000</i>
   <i type="int" name="NBLOCK">     1</i>
   <i type="int" name="KBLOCK">   300</i>
   <i type="int" name="NPACO">   256</i>
   <i name="APACO">     10.00000000</i>
  </separator>
  <separator name="symmetry" >
   <i type="int" name="ISYM">     2</i>
   <i name="SYMPREC">      0.00001000</i>
  </separator>
  <separator name="dos" >
   <i type="int" name="LORBIT">     0</i>
   <v name="RWIGS">     -1.00000000     -1.00000000     -1.00000000</v>
   <i type="int" name="NEDOS">   301</i>
   <i name="EMIN">     10.00000000</i>
   <i name="EMAX">    -10.00000000</i>
   <i name="EFERMI">      0.00000000</i>
  </separator>
  <separator name="writing" >
   <i type="int" name="NWRITE">     2</i>
   <i type="logical" name="LWAVE"> F  </i>
   <i type="logical" name="LDOWNSAMPLE"> F  </i>
   <i type="logical" name="LCHARG"> F  </i>
   <i type="logical" name="LPARD"> F  </i>
   <i type="logical" name="LVTOT"> F  </i>
   <i type="logical" name="LVHAR"> F  </i>
   <i type="logical" name="LELF"> F  </i>
   <i type="logical" name="LOPTICS"> F  </i>
   <v name="STM">      0.00000000      0.00000000      0.00000000      0.00000000      0.00000000      0.00000000      0.00000000</v>
  </separator>
  <separator name="performance" >
   <i type="int" name="NPAR">    48</i>
   <i type="int" name="NSIM">     4</i>
   <i type="int" name="NBLK">    -1</i>
   <i type="logical" name="LPLANE"> T  </i>
   <i type="logical" name="LSCALAPACK"> T  </i>
   <i type="logical" name="LSCAAWARE"> T  </i>
   <i type="logical" name="LSCALU"> F  </i>
   <i type="logical" name="LASYNC"> F  </i>
   <i type="logical" name="LORBITALREAL"> F  </i>
  </separator>
  <separator name="miscellaneous" >
   <i type="int" name="IDIOT">     3</i>
   <i type="int" name="PHON_NSTRUCT">    -1</i>
   <i type="logical" name="LMUSIC"> F  </i>
   <v name="POMASS">    140.11500000     16.00000000    192.22000000</v>
   <v name="DARWINR">      0.00000000      0.00000000      0.00000000</v>
   <v name="DARWINV">      1.00000000      1.00000000      1.00000000</v>
   <i type="logical" name="LCORR"> T  </i>
  </separator>
  <i type="logical" name="GGA_COMPAT"> T  </i>
  <i type="logical" name="LBERRY"> F  </i>
  <i type="int" name="ICORELEVEL">     0</i>
  <i type="logical" name="LDAU"> T  </i>
  <v type="int" name="LDAUTYPE">     2</v>
  <v type="int" name="LDAUL">     3</v>
  <v name="LDAUU">      5.00000000</v>
  <v name="LDAUJ">      0.00000000</v>
  <i type="int" name="LDAUPRINT">     0</i>
  <i type="int" name="I_CONSTRAINED_M">     0</i>
  <separator name="electronic exchange-correlation" >
   <i type="string" name="GGA    ">PE</i>
   <i type="string" name="XC_C">1</i>
   <i type="int" name="VOSKOWN">     0</i>
   <i type="logical" name="LHFCALC"> F  </i>
   <i type="string" name="PRECFOCK"></i>
   <i type="logical" name="LSYMGRAD"> F  </i>
   <i type="logical" name="LHFONE"> F  </i>
   <i type="logical" name="LRHFCALC"> F  </i>
   <i type="logical" name="LTHOMAS"> F  </i>
   <i type="logical" name="LMODELHF"> F  </i>
   <i type="logical" name="LFOCKACE"> F  </i>
   <i name="ENCUT4O">     -1.00000000</i>
   <i type="int" name="EXXOEP">     0</i>
   <i type="int" name="FOURORBIT">     0</i>
   <i name="AEXX">      0.00000000</i>
   <i name="HFALPHA">      0.00000000</i>
   <i name="MCALPHA">      0.00000000</i>
   <i name="ALDAX">      1.00000000</i>
   <i name="AGGAX">      1.00000000</i>
   <i name="AMGGAX">      1.00000000</i>
   <i name="ALDAC">      1.00000000</i>
   <i name="AGGAC">      1.00000000</i>
   <i name="AMGGAC">      1.00000000</i>
   <i type="int" name="NKREDX">     1</i>
   <i type="int" name="NKREDY">     1</i>
   <i type="int" name="NKREDZ">     1</i>
   <i type="logical" name="SHIFTRED"> F  </i>
   <i type="logical" name="ODDONLY"> F  </i>
   <i type="logical" name="EVENONLY"> F  </i>
   <i type="int" name="LMAXFOCK">     0</i>
   <i type="int" name="NMAXFOCKAE">     0</i>
   <i type="logical" name="LFOCKAEDFT"> F  </i>
   <i name="HFSCREEN">      0.00000000</i>
   <i name="HFSCREENC">      0.00000000</i>
   <i type="int" name="NBANDSGWLOW">     0</i>
  </separator>
  <separator name="vdW DFT" >
   <i type="logical" name="LUSE_VDW"> F  </i>
   <i type="int" name="IVDW_NL">    -1</i>
   <i type="logical" name="LSPIN_VDW"> F  </i>
   <i name="ZAB_VDW">     -0.84910000</i>
   <i name="GAMMA_VDW">      1.39626340</i>
   <i name="ALPHA_VDW">      0.00000000</i>
   <i name="PARAM1">      0.12340000</i>
   <i name="PARAM2">      1.00000000</i>
   <i name="BPARAM">      6.30000000</i>
   <i name="CPARAM">      0.00930000</i>
  </separator>
  <separator name="model GW" >
   <i type="int" name="MODEL_GW">     0</i>
   <i name="MODEL_EPS0">     20.15371773</i>
   <i name="MODEL_ALPHA">      1.00000000</i>
  </separator>
  <separator name="linear response parameters" >
   <i type="logical" name="LEPSILON"> F  </i>
   <i type="logical" name="LRPA"> F  </i>
   <i type="logical" name="LNABLA"> F  </i>
   <i type="logical" name="LVEL"> F  </i>
   <i name="CSHIFT">      0.10000000</i>
   <i name="OMEGAMAX">     -1.00000000</i>
   <i name="DEG_THRESHOLD">      0.00200000</i>
   <i name="RTIME">     -0.10000000</i>
   <i name="WPLASMAI">      0.00000000</i>
   <v name="DFIELD">      0.00000000      0.00000000      0.00000000</v>
   <v name="WPLASMA">      0.00000000      0.00000000      0.00000000      0.00000000      0.00000000      0.00000000      0.00000000      0.00000000      0.00000000</v>
  </separator>
  <separator name="orbital magnetization" >
   <i type="logical" name="NUCIND"> F  </i>
   <v name="MAGPOS">      0.00000000      0.00000000      0.00000000</v>
   <i type="logical" name="LNICSALL"> T  </i>
   <i type="logical" name="ORBITALMAG"> F  </i>
   <i type="logical" name="LMAGBLOCH"> F  </i>
   <i type="logical" name="LCHIMAG"> F  </i>
   <i type="logical" name="LGAUGE"> T  </i>
   <i type="int" name="MAGATOM">     0</i>
   <v name="MAGDIPOL">      0.00000000      0.00000000      0.00000000</v>
   <v name="AVECCONST">      0.00000000      0.00000000      0.00000000</v>
  </separator>
  <separator name="response functions" >
   <i type="logical" name="LALL_IN_ONE"> F  </i>
   <i type="int" name="IALL_IN_ONE">    -1</i>
   <i type="int" name="NBANDS_WAVE">    -1</i>
   <i type="logical" name="LFINITE_TEMPERATURE"> F  </i>
   <i type="logical" name="LADDER"> F  </i>
   <i type="logical" name="LRPAFORCE"> F  </i>
   <i type="logical" name="LFXC"> F  </i>
   <i type="logical" name="LHARTREE"> T  </i>
   <i type="int" name="IBSE">     0</i>
   <v type="int" name="KPOINT">    -1     0     0     0</v>
   <i type="logical" name="LTCTC"> F  </i>
   <i type="logical" name="LTCTE"> F  </i>
   <i type="logical" name="LTETE"> F  </i>
   <i type="logical" name="LTRIPLET"> F  </i>
   <i type="logical" name="LFXCEPS"> F  </i>
   <i type="logical" name="LFXHEG"> F  </i>
   <i type="int" name="NATURALO">     2</i>
   <i type="logical" name="LHOLEGF"> F  </i>
   <i type="logical" name="L2ORDER"> F  </i>
   <i type="logical" name="LDMP1"> F  </i>
   <i type="logical" name="LMP2LT"> F  </i>
   <i type="logical" name="LSMP2LT"> F  </i>
   <i type="logical" name="LGWLF"> F  </i>
   <i name="ENCUTGW">     -1.60000002</i>
   <i name="ENCUTGWSOFT">     -1.60000002</i>
   <i name="ENCUTLF">     -1.00000000</i>
   <i type="logical" name="ESF_SPLINES"> F  </i>
   <i name="ESF_CONV">      0.01000000</i>
   <i type="int" name="ESF_NINTER">    15</i>
   <i type="int" name="LMAXMP2">    -1</i>
   <i name="SCISSOR">      0.00000000</i>
   <i type="int" name="NOMEGA">     0</i>
   <i type="int" name="NOMEGAR">     0</i>
   <i type="int" name="NBANDSGW">    -1</i>
   <i type="int" name="NBANDSO">    -1</i>
   <i type="int" name="NBANDSV">    -1</i>
   <i type="int" name="NELMGW">     1</i>
   <i type="int" name="NELMHF">     1</i>
   <i type="int" name="DIM">     3</i>
   <i type="int" name="IESPILON">     4</i>
   <i type="int" name="ANTIRES">     0</i>
   <i name="OMEGAMAX">    -30.00000000</i>
   <i name="OMEGAMIN">    -30.00000000</i>
   <i name="OMEGATL">   -200.00000000</i>
   <i type="int" name="OMEGAGRID">     0</i>
   <i name="CSHIFT">     -0.10000000</i>
   <i type="logical" name="LSELFENERGY"> F  </i>
   <i type="logical" name="LSPECTRAL"> F  </i>
   <i type="logical" name="LSPECTRALGW"> F  </i>
   <i type="logical" name="LSINGLES"> F  </i>
   <i type="logical" name="LFERMIGW"> F  </i>
   <i type="logical" name="ODDONLYGW"> F  </i>
   <i type="logical" name="EVENONLYGW"> F  </i>
   <i type="int" name="NKREDLFX">     1</i>
   <i type="int" name="NKREDLFY">     1</i>
   <i type="int" name="NKREDLFZ">     1</i>
   <i type="int" name="MAXMEM">  2800</i>
   <i type="int" name="TELESCOPE">     0</i>
   <i type="int" name="NTAUPAR">    -1</i>
   <i type="int" name="NOMEGAPAR">    -1</i>
   <i name="DAMP_NEWTON">      0.80000001</i>
   <i name="LAMBDA">      1.00000000</i>
  </separator>
  <separator name="External order field" >
   <i name="OFIELD_KAPPA">      0.00000000</i>
   <v name="OFIELD_K">      0.00000000      0.00000000      0.00000000</v>
   <i name="OFIELD_Q6_NEAR">      0.00000000</i>
   <i name="OFIELD_Q6_FAR">      0.00000000</i>
   <i name="OFIELD_A">      0.00000000</i>
  </separator>
  <separator name="optional k-points parameters" >
   <i type="int" name="KPOINTS_OPT_MODE">     1</i>
   <i type="logical" name="LKPOINTS_OPT"> F  </i>
  </separator>
 </parameters>
 <atominfo>
  <atoms>      73 </atoms>
  <types>       3 </types>
  <array name="atoms" >
   <dimension dim="1">ion</dimension>
   <field type="string">element</field>
   <field type="int">atomtype</field>
   <set>
    <rc><c>Ce</c><c>   1</c></rc>
    <rc><c>Ce</c><c>   1</c></rc>
    <rc><c>Ce</c><c>   1</c></rc>
    <rc><c>Ce</c><c>   1</c></rc>
    <rc><c>Ce</c><c>   1</c></rc>
    <rc><c>Ce</c><c>   1</c></rc>
    <rc><c>Ce</c><c>   1</c></rc>
    <rc><c>Ce</c><c>   1</c></rc>
    <rc><c>Ce</c><c>   1</c></rc>
    <rc><c>Ce</c><c>   1</c></rc>
    <rc><c>Ce</c><c>   1</c></rc>
    <rc><c>Ce</c><c>   1</c></rc>
    <rc><c>Ce</c><c>   1</c></rc>
    <rc><c>Ce</c><c>   1</c></rc>
    <rc><c>Ce</c><c>   1</c></rc>
    <rc><c>Ce</c><c>   1</c></rc>
    <rc><c>Ce</c><c>   1</c></rc>
    <rc><c>Ce</c><c>   1</c></rc>
    <rc><c>O </c><c>   2</c></rc>
    <rc><c>O </c><c>   2</c></rc>
    <rc><c>O </c><c>   2</c></rc>
    <rc><c>O </c><c>   2</c></rc>
    <rc><c>O </c><c>   2</c></rc>
    <rc><c>O </c><c>   2</c></rc>
    <rc><c>O </c><c>   2</c></rc>
    <rc><c>O </c><c>   2</c></rc>
    <rc><c>O </c><c>   2</c></rc>
    <rc><c>O </c><c>   2</c></rc>
    <rc><c>O </c><c>   2</c></rc>
    <rc><c>O </c><c>   2</c></rc>
    <rc><c>O </c><c>   2</c></rc>
    <rc><c>O </c><c>   2</c></rc>
    <rc><c>O </c><c>   2</c></rc>
    <rc><c>O </c><c>   2</c></rc>
    <rc><c>O </c><c>   2</c></rc>
    <rc><c>O </c><c>   2</c></rc>
    <rc><c>O </c><c>   2</c></rc>
    <rc><c>O </c><c>   2</c></rc>
    <rc><c>O </c><c>   2</c></rc>
    <rc><c>O </c><c>   2</c></rc>
    <rc><c>O </c><c>   2</c></rc>
    <rc><c>O </c><c>   2</c></rc>
    <rc><c>O </c><c>   2</c></rc>
    <rc><c>O </c><c>   2</c></rc>
    <rc><c>O </c><c>   2</c></rc>
    <rc><c>O </c><c>   2</c></rc>
    <rc><c>O </c><c>   2</c></rc>
    <rc><c>O </c><c>   2</c></rc>
    <rc><c>O </c><c>   2</c></rc>
    <rc><c>O </c><c>   2</c></rc>
    <rc><c>O </c><c>   2</c></rc>
    <rc><c>O </c><c>   2</c></rc>
    <rc><c>O </c><c>   2</c></rc>
    <rc><c>O </c><c>   2</c></rc>
    <rc><c>O </c><c>   2</c></rc>
    <rc><c>O </c><c>   2</c></rc>
    <rc><c>O </c><c>   2</c></rc>
    <rc><c>O </c><c>   2</c></rc>
    <rc><c>O </c><c>   2</c></rc>
    <rc><c>O </c><c>   2</c></rc>
    <rc><c>O </c><c>   2</c></rc>
    <rc><c>O </c><c>   2</c></rc>
    <rc><c>O </c><c>   2</c></rc>
    <rc><c>O </c><c>   2</c></rc>
    <rc><c>O </c><c>   2</c></rc>
    <rc><c>O </c><c>   2</c></rc>
    <rc><c>Ir</c><c>   3</c></rc>
    <rc><c>Ir</c><c>   3</c></rc>
    <rc><c>Ir</c><c>   3</c></rc>
    <rc><c>Ir</c><c>   3</c></rc>
    <rc><c>Ir</c><c>   3</c></rc>
    <rc><c>Ir</c><c>   3</c></rc>
    <rc><c>Ir</c><c>   3</c></rc>
   </set>
  </array>
  <array name="atomtypes" >
   <dimension dim="1">type</dimension>
   <field type="int">atomspertype</field>
   <field type="string">element</field>
   <field>mass</field>
   <field>valence</field>
   <field type="string">pseudopotential</field>
   <set>
    <rc><c>  18</c><c>Ce</c><c>    140.11500000</c><c>     12.00000000</c><c>  PAW_PBE Ce 23Dec2003                  </c></rc>
    <rc><c>  48</c><c>O </c><c>     16.00000000</c><c>      6.00000000</c><c>  PAW_PBE O 08Apr2002                   </c></rc>
    <rc><c>   7</c><c>Ir</c><c>    192.22000000</c><c>      9.00000000</c><c>  PAW_PBE Ir 06Sep2000                  </c></rc>
   </set>
  </array>
 </atominfo>
 <structure name="initialpos" >
  <crystal>
   <varray name="basis" >
    <v>      11.59819984       0.00000000       0.00000000 </v>
    <v>      -5.79909992      10.04433570       0.00000000 </v>
    <v>       0.00000000       0.00000000      21.04820061 </v>
   </varray>
   <i name="volume">   2452.03565684 </i>
   <varray name="rec_basis" >
    <v>       0.08622028       0.04977930       0.00000000 </v>
    <v>       0.00000000       0.09955860       0.00000000 </v>
    <v>       0.00000000       0.00000000       0.04751000 </v>
   </varray>
  </crystal>
  <varray name="positions" >
   <v>       0.00306000       0.99701000       0.45904000 </v>
   <v>       0.22222000       0.11111000       0.30996000 </v>
   <v>       0.32549000       0.99694000       0.46156000 </v>
   <v>       0.55556000       0.11111000       0.30996000 </v>
   <v>       0.66956000       0.00575000       0.46395000 </v>
   <v>       0.88889000       0.11111000       0.30996000 </v>
   <v>       0.99429000       0.33043000       0.46388000 </v>
   <v>       0.22222000       0.44444000       0.30996000 </v>
   <v>       0.33282000       0.33388000       0.45848000 </v>
   <v>       0.55556000       0.44444000       0.30996000 </v>
   <v>       0.67135000       0.32877000       0.45654000 </v>
   <v>       0.88889000       0.44444000       0.30996000 </v>
   <v>       0.00316000       0.67453000       0.46154000 </v>
   <v>       0.22222000       0.77778000       0.30996000 </v>
   <v>       0.33406000       0.66594000       0.45975000 </v>
   <v>       0.55556000       0.77778000       0.30996000 </v>
   <v>       0.66613000       0.66721000       0.45873000 </v>
   <v>       0.88889000       0.77778000       0.30996000 </v>
   <v>       0.00565000       0.99485000       0.58210000 </v>
   <v>       0.11111000       0.22222000       0.27247000 </v>
   <v>       0.22656000       0.11765000       0.42160000 </v>
   <v>       0.10918000       0.21885000       0.50297000 </v>
   <v>       0.00000000       0.00000000       0.34745000 </v>
   <v>       0.33556000       0.03161000       0.57938000 </v>
   <v>       0.44444000       0.22222000       0.27247000 </v>
   <v>       0.55030000       0.10727000       0.42191000 </v>
   <v>       0.45382000       0.23523000       0.50060000 </v>
   <v>       0.33333000       0.00000000       0.34745000 </v>
   <v>       0.64283000       0.98322000       0.57804000 </v>
   <v>       0.77778000       0.22222000       0.27247000 </v>
   <v>       0.89158000       0.10857000       0.42339000 </v>
   <v>       0.77761000       0.22235000       0.49035000 </v>
   <v>       0.66667000       0.00000000       0.34745000 </v>
   <v>       0.01630000       0.35688000       0.57800000 </v>
   <v>       0.11111000       0.55556000       0.27247000 </v>
   <v>       0.21763000       0.43414000       0.42280000 </v>
   <v>       0.10806000       0.56205000       0.50220000 </v>
   <v>       0.00000000       0.33333000       0.34745000 </v>
   <v>       0.31656000       0.34768000       0.59359000 </v>
   <v>       0.44444000       0.55556000       0.27247000 </v>
   <v>       0.55458000       0.44564000       0.42043000 </v>
   <v>       0.44686000       0.55242000       0.50293000 </v>
   <v>       0.33333000       0.33333000       0.34745000 </v>
   <v>       0.65920000       0.34118000       0.59127000 </v>
   <v>       0.77778000       0.55556000       0.27247000 </v>
   <v>       0.89277000       0.44965000       0.42186000 </v>
   <v>       0.76508000       0.54608000       0.50064000 </v>
   <v>       0.66667000       0.33333000       0.34745000 </v>
   <v>       0.96990000       0.66367000       0.57908000 </v>
   <v>       0.11111000       0.88889000       0.27247000 </v>
   <v>       0.22044000       0.77962000       0.42116000 </v>
   <v>       0.11038000       0.88973000       0.48834000 </v>
   <v>       0.00000000       0.66667000       0.34745000 </v>
   <v>       0.30517000       0.69453000       0.59704000 </v>
   <v>       0.44444000       0.88889000       0.27247000 </v>
   <v>       0.56586000       0.78233000       0.42294000 </v>
   <v>       0.43772000       0.89209000       0.50232000 </v>
   <v>       0.33333000       0.66667000       0.34745000 </v>
   <v>       0.65422000       0.68098000       0.59145000 </v>
   <v>       0.77778000       0.88889000       0.27247000 </v>
   <v>       0.88226000       0.77347000       0.42165000 </v>
   <v>       0.78140000       0.89145000       0.50298000 </v>
   <v>       0.66667000       0.66667000       0.34745000 </v>
   <v>       0.42925000       0.58667000       0.65283000 </v>
   <v>       0.54415000       0.47272000       0.67255000 </v>
   <v>       0.57066000       0.45780000       0.52863000 </v>
   <v>       0.48481000       0.51415000       0.58780000 </v>
   <v>       0.15960000       0.17340000       0.58377000 </v>
   <v>       0.49288000       0.18566000       0.58271000 </v>
   <v>       0.81547000       0.50671000       0.58253000 </v>
   <v>       0.82744000       0.84064000       0.58339000 </v>
   <v>       0.47311000       0.84632000       0.58615000 </v>
   <v>       0.15355000       0.52643000       0.58607000 </v>
  </varray>
  <varray name="selective"  type="logical" >
   <v type="logical" >  T  T  T </v>
   <v type="logical" >  F  F  F </v>
   <v type="logical" >  T  T  T </v>
   <v type="logical" >  F  F  F </v>
   <v type="logical" >  T  T  T </v>
   <v type="logical" >  F  F  F </v>
   <v type="logical" >  T  T  T </v>
   <v type="logical" >  F  F  F </v>
   <v type="logical" >  T  T  T </v>
   <v type="logical" >  F  F  F </v>
   <v type="logical" >  T  T  T </v>
   <v type="logical" >  F  F  F </v>
   <v type="logical" >  T  T  T </v>
   <v type="logical" >  F  F  F </v>
   <v type="logical" >  T  T  T </v>
   <v type="logical" >  F  F  F </v>
   <v type="logical" >  T  T  T </v>
   <v type="logical" >  F  F  F </v>
   <v type="logical" >  T  T  T </v>
   <v type="logical" >  F  F  F </v>
   <v type="logical" >  T  T  T </v>
   <v type="logical" >  T  T  T </v>
   <v type="logical" >  F  F  F </v>
   <v type="logical" >  T  T  T </v>
   <v type="logical" >  F  F  F </v>
   <v type="logical" >  T  T  T </v>
   <v type="logical" >  T  T  T </v>
   <v type="logical" >  F  F  F </v>
   <v type="logical" >  T  T  T </v>
   <v type="logical" >  F  F  F </v>
   <v type="logical" >  T  T  T </v>
   <v type="logical" >  T  T  T </v>
   <v type="logical" >  F  F  F </v>
   <v type="logical" >  T  T  T </v>
   <v type="logical" >  F  F  F </v>
   <v type="logical" >  T  T  T </v>
   <v type="logical" >  T  T  T </v>
   <v type="logical" >  F  F  F </v>
   <v type="logical" >  T  T  T </v>
   <v type="logical" >  F  F  F </v>
   <v type="logical" >  T  T  T </v>
   <v type="logical" >  T  T  T </v>
   <v type="logical" >  F  F  F </v>
   <v type="logical" >  T  T  T </v>
   <v type="logical" >  F  F  F </v>
   <v type="logical" >  T  T  T </v>
   <v type="logical" >  T  T  T </v>
   <v type="logical" >  F  F  F </v>
   <v type="logical" >  T  T  T </v>
   <v type="logical" >  F  F  F </v>
   <v type="logical" >  T  T  T </v>
   <v type="logical" >  T  T  T </v>
   <v type="logical" >  F  F  F </v>
   <v type="logical" >  T  T  T </v>
   <v type="logical" >  F  F  F </v>
   <v type="logical" >  T  T  T </v>
   <v type="logical" >  T  T  T </v>
   <v type="logical" >  F  F  F </v>
   <v type="logical" >  T  T  T </v>
   <v type="logical" >  F  F  F </v>
   <v type="logical" >  T  T  T </v>
   <v type="logical" >  T  T  T </v>
   <v type="logical" >  F  F  F </v>
   <v type="logical" >  T  T  T </v>
   <v type="logical" >  T  T  T </v>
   <v type="logical" >  T  T  T </v>
   <v type="logical" >  T  T  T </v>
   <v type="logical" >  T  T  T </v>
   <v type="logical" >  T  T  T </v>
   <v type="logical" >  T  T  T </v>
   <v type="logical" >  T  T  T </v>
   <v type="logical" >  T  T  T </v>
   <v type="logical" >  T  T  T </v>
  </varray>
  <nose>
   <v>      -3.00000000       0.00000000       0.00010000       0.00010000 </v>
  </nose>
 </structure>
 <calculation>
  <scstep>
   <time name="dav">    1.73    1.76</time>
   <time name="total">    3.21    3.25</time>
   <energy>
    <i name="alphaZ">   1192.14239942 </i>
    <i name="ewald"> 126526.68828494 </i>
    <i name="hartreedc">-166315.60561600 </i>
    <i name="XCdc">   1301.73349663 </i>
    <i name="pawpsdc">  35805.60743451 </i>
    <i name="pawaedc"> -35134.85540715 </i>
    <i name="eentropy">     -0.01467586 </i>
    <i name="bandstr">   2881.40617634 </i>
    <i name="atom">  43809.76760834 </i>
    <i name="e_fr_energy">  10066.86970116 </i>
    <i name="e_wo_entrp">  10066.88437702 </i>
    <i name="e_0_energy">  10066.87703909 </i>
   </energy>
  </scstep>
  <scstep>
   <time name="dav">    1.85    1.85</time>
   <time name="total">    1.85    1.85</time>
   <energy>
    <i name="e_fr_energy">   2810.85679724 </i>
    <i name="e_wo_entrp">   2810.96230348 </i>
    <i name="e_0_energy">   2810.90955036 </i>
   </energy>
  </scstep>
  <scstep>
   <time name="dav">    2.18    2.18</time>
   <time name="total">    2.18    2.18</time>
   <energy>
    <i name="e_fr_energy">   -245.82084378 </i>
    <i name="e_wo_entrp">   -245.75796730 </i>
    <i name="e_0_energy">   -245.78940554 </i>
   </energy>
  </scstep>
  <scstep>
   <time name="dav">    2.15    2.15</time>
   <time name="total">    2.15    2.15</time>
   <energy>
    <i name="e_fr_energy">   -658.23643473 </i>
    <i name="e_wo_entrp">   -658.20329388 </i>
    <i name="e_0_energy">   -658.21986430 </i>
   </energy>
  </scstep>
  <scstep>
   <time name="dav">    2.44    2.45</time>
   <time name="total">    3.12    3.13</time>
   <energy>
    <i name="e_fr_energy">   -679.46006077 </i>
    <i name="e_wo_entrp">   -679.41506894 </i>
    <i name="e_0_energy">   -679.43756485 </i>
   </energy>
  </scstep>
  <scstep>
   <time name="dav">    2.11    2.11</time>
   <time name="total">    4.18    4.18</time>
   <energy>
    <i name="e_fr_energy">   -543.83094535 </i>
    <i name="e_wo_entrp">   -543.69780477 </i>
    <i name="e_0_energy">   -543.76437506 </i>
   </energy>
  </scstep>
  <scstep>
   <time name="dav">    2.29    2.29</time>
   <time name="total">    4.31    4.32</time>
   <energy>
    <i name="e_fr_energy">   -540.82727458 </i>
    <i name="e_wo_entrp">   -540.79572144 </i>
    <i name="e_0_energy">   -540.81149801 </i>
   </energy>
  </scstep>
  <scstep>
   <time name="dav">    2.32    2.32</time>
   <time name="total">    4.35    4.35</time>
   <energy>
    <i name="e_fr_energy">   -564.73456887 </i>
    <i name="e_wo_entrp">   -564.73243800 </i>
    <i name="e_0_energy">   -564.73350343 </i>
   </energy>
  </scstep>
  <scstep>
   <time name="dav">    2.17    2.17</time>
   <time name="total">    4.20    4.21</time>
   <energy>
    <i name="e_fr_energy">   -529.32955842 </i>
    <i name="e_wo_entrp">   -529.31464989 </i>
    <i name="e_0_energy">   -529.32210415 </i>
   </energy>
  </scstep>
  <scstep>
   <time name="dav">    2.25    2.25</time>
   <time name="total">    4.26    4.26</time>
   <energy>
    <i name="e_fr_energy">   -518.42192344 </i>
    <i name="e_wo_entrp">   -518.39370912 </i>
    <i name="e_0_energy">   -518.40781628 </i>
   </energy>
  </scstep>
  <scstep>
   <time name="dav">    2.32    2.32</time>
   <time name="total">    4.35    4.35</time>
   <energy>
    <i name="e_fr_energy">   -512.08860307 </i>
    <i name="e_wo_entrp">   -512.05140187 </i>
    <i name="e_0_energy">   -512.07000247 </i>
   </energy>
  </scstep>
  <scstep>
   <time name="dav">    2.04    2.04</time>
   <time name="total">    4.06    4.06</time>
   <energy>
    <i name="e_fr_energy">   -510.38154493 </i>
    <i name="e_wo_entrp">   -510.37374588 </i>
    <i name="e_0_energy">   -510.37764541 </i>
   </energy>
  </scstep>
  <scstep>
   <time name="dav">    2.55    2.55</time>
   <time name="total">    4.57    4.58</time>
   <energy>
    <i name="e_fr_energy">   -507.83710358 </i>
    <i name="e_wo_entrp">   -507.82471551 </i>
    <i name="e_0_energy">   -507.83090955 </i>
   </energy>
  </scstep>
  <scstep>
   <time name="dav">    2.23    2.24</time>
   <time name="total">    4.30    4.30</time>
   <energy>
    <i name="e_fr_energy">   -507.90729003 </i>
    <i name="e_wo_entrp">   -507.90582215 </i>
    <i name="e_0_energy">   -507.90655609 </i>
   </energy>
  </scstep>
  <scstep>
   <time name="dav">    2.31    2.31</time>
   <time name="total">    4.34    4.34</time>
   <energy>
    <i name="e_fr_energy">   -508.85949681 </i>
    <i name="e_wo_entrp">   -508.85900340 </i>
    <i name="e_0_energy">   -508.85925010 </i>
   </energy>
  </scstep>
  <scstep>
   <time name="dav">    2.33    2.33</time>
   <time name="total">    4.34    4.34</time>
   <energy>
    <i name="e_fr_energy">   -511.26139221 </i>
    <i name="e_wo_entrp">   -511.24568273 </i>
    <i name="e_0_energy">   -511.25353747 </i>
   </energy>
  </scstep>
  <scstep>
   <time name="dav">    2.44    2.45</time>
   <time name="total">    4.46    4.47</time>
   <energy>
    <i name="e_fr_energy">   -513.22341815 </i>
    <i name="e_wo_entrp">   -513.22254310 </i>
    <i name="e_0_energy">   -513.22298063 </i>
   </energy>
  </scstep>
  <scstep>
   <time name="dav">    2.37    2.37</time>
   <time name="total">    4.38    4.39</time>
   <energy>
    <i name="e_fr_energy">   -518.07815885 </i>
    <i name="e_wo_entrp">   -518.03972617 </i>
    <i name="e_0_energy">   -518.05894251 </i>
   </energy>
  </scstep>
  <scstep>
   <time name="dav">    2.29    2.29</time>
   <time name="total">    4.32    4.32</time>
   <energy>
    <i name="e_fr_energy">   -520.22583148 </i>
    <i name="e_wo_entrp">   -520.21856582 </i>
    <i name="e_0_energy">   -520.22219865 </i>
   </energy>
  </scstep>
  <scstep>
   <time name="dav">    2.43    2.43</time>
   <time name="total">    4.48    4.48</time>
   <energy>
    <i name="e_fr_energy">   -520.79260101 </i>
    <i name="e_wo_entrp">   -520.78861508 </i>
    <i name="e_0_energy">   -520.79060804 </i>
   </energy>
  </scstep>
  <scstep>
   <time name="dav">    2.40    2.40</time>
   <time name="total">    4.43    4.44</time>
   <energy>
    <i name="e_fr_energy">   -521.43416680 </i>
    <i name="e_wo_entrp">   -521.42795810 </i>
    <i name="e_0_energy">   -521.43106245 </i>
   </energy>
  </scstep>
  <scstep>
   <time name="dav">    2.16    2.16</time>
   <time name="total">    4.18    4.18</time>
   <energy>
    <i name="e_fr_energy">   -523.41850310 </i>
    <i name="e_wo_entrp">   -523.40762358 </i>
    <i name="e_0_energy">   -523.41306334 </i>
   </energy>
  </scstep>
  <scstep>
   <time name="dav">    2.20    2.20</time>
   <time name="total">    4.23    4.23</time>
   <energy>
    <i name="e_fr_energy">   -525.74802768 </i>
    <i name="e_wo_entrp">   -525.73414762 </i>
    <i name="e_0_energy">   -525.74108765 </i>
   </energy>
  </scstep>
  <scstep>
   <time name="dav">    2.29    2.29</time>
   <time name="total">    4.31    4.31</time>
   <energy>
    <i name="e_fr_energy">   -527.22007250 </i>
    <i name="e_wo_entrp">   -527.20845120 </i>
    <i name="e_0_energy">   -527.21426185 </i>
   </energy>
  </scstep>
  <scstep>
   <time name="dav">    2.33    2.33</time>
   <time name="total">    4.35    4.36</time>
   <energy>
    <i name="e_fr_energy">   -528.31418983 </i>
    <i name="e_wo_entrp">   -528.30143718 </i>
    <i name="e_0_energy">   -528.30781351 </i>
   </energy>
  </scstep>
  <scstep>
   <time name="dav">    2.25    2.25</time>
   <time name="total">    4.26    4.27</time>
   <energy>
    <i name="e_fr_energy">   -529.17878802 </i>
    <i name="e_wo_entrp">   -529.16214639 </i>
    <i name="e_0_energy">   -529.17046720 </i>
   </energy>
  </scstep>
  <scstep>
   <time name="dav">    2.43    2.43</time>
   <time name="total">    4.44    4.45</time>
   <energy>
    <i name="e_fr_energy">   -529.56099699 </i>
    <i name="e_wo_entrp">   -529.54504348 </i>
    <i name="e_0_energy">   -529.55302023 </i>
   </energy>
  </scstep>
  <scstep>
   <time name="dav">    2.28    2.28</time>
   <time name="total">    4.30    4.30</time>
   <energy>
    <i name="e_fr_energy">   -529.77985690 </i>
    <i name="e_wo_entrp">   -529.76394815 </i>
    <i name="e_0_energy">   -529.77190252 </i>
   </energy>
  </scstep>
  <scstep>
   <time name="dav">    2.31    2.31</time>
   <time name="total">    4.34    4.35</time>
   <energy>
    <i name="e_fr_energy">   -530.09998026 </i>
    <i name="e_wo_entrp">   -530.08025360 </i>
    <i name="e_0_energy">   -530.09011693 </i>
   </energy>
  </scstep>
  <scstep>
   <time name="dav">    2.31    2.31</time>
   <time name="total">    4.35    4.35</time>
   <energy>
    <i name="e_fr_energy">   -530.27820156 </i>
    <i name="e_wo_entrp">   -530.26062080 </i>
    <i name="e_0_energy">   -530.26941118 </i>
   </energy>
  </scstep>
  <scstep>
   <time name="dav">    2.24    2.24</time>
   <time name="total">    4.26    4.26</time>
   <energy>
    <i name="e_fr_energy">   -530.40762699 </i>
    <i name="e_wo_entrp">   -530.39157875 </i>
    <i name="e_0_energy">   -530.39960287 </i>
   </energy>
  </scstep>
  <scstep>
   <time name="dav">    2.40    2.40</time>
   <time name="total">    4.40    4.40</time>
   <energy>
    <i name="e_fr_energy">   -530.55039505 </i>
    <i name="e_wo_entrp">   -530.53463833 </i>
    <i name="e_0_energy">   -530.54251669 </i>
   </energy>
  </scstep>
  <scstep>
   <time name="dav">    2.17    2.17</time>
   <time name="total">    4.18    4.18</time>
   <energy>
    <i name="e_fr_energy">   -530.65911427 </i>
    <i name="e_wo_entrp">   -530.64260921 </i>
    <i name="e_0_energy">   -530.65086174 </i>
   </energy>
  </scstep>
  <scstep>
   <time name="dav">    2.28    2.28</time>
   <time name="total">    4.30    4.31</time>
   <energy>
    <i name="e_fr_energy">   -530.70827003 </i>
    <i name="e_wo_entrp">   -530.69160149 </i>
    <i name="e_0_energy">   -530.69993576 </i>
   </energy>
  </scstep>
  <scstep>
   <time name="dav">    2.20    2.20</time>
   <time name="total">    4.20    4.20</time>
   <energy>
    <i name="e_fr_energy">   -530.72372582 </i>
    <i name="e_wo_entrp">   -530.70727755 </i>
    <i name="e_0_energy">   -530.71550169 </i>
   </energy>
  </scstep>
  <scstep>
   <time name="dav">    2.17    2.17</time>
   <time name="total">    4.21    4.21</time>
   <energy>
    <i name="e_fr_energy">   -530.74833901 </i>
    <i name="e_wo_entrp">   -530.73215606 </i>
    <i name="e_0_energy">   -530.74024753 </i>
   </energy>
  </scstep>
  <scstep>
   <time name="dav">    2.16    2.16</time>
   <time name="total">    4.20    4.20</time>
   <energy>
    <i name="e_fr_energy">   -530.76736701 </i>
    <i name="e_wo_entrp">   -530.75108885 </i>
    <i name="e_0_energy">   -530.75922793 </i>
   </energy>
  </scstep>
  <scstep>
   <time name="dav">    2.17    2.17</time>
   <time name="total">    4.19    4.20</time>
   <energy>
    <i name="e_fr_energy">   -530.78138975 </i>
    <i name="e_wo_entrp">   -530.76521410 </i>
    <i name="e_0_energy">   -530.77330193 </i>
   </energy>
  </scstep>
  <scstep>
   <time name="dav">    2.17    2.18</time>
   <time name="total">    4.20    4.20</time>
   <energy>
    <i name="e_fr_energy">   -530.79529444 </i>
    <i name="e_wo_entrp">   -530.77939609 </i>
    <i name="e_0_energy">   -530.78734527 </i>
   </energy>
  </scstep>
  <scstep>
   <time name="dav">    2.35    2.35</time>
   <time name="total">    4.37    4.38</time>
   <energy>
    <i name="e_fr_energy">   -530.79843577 </i>
    <i name="e_wo_entrp">   -530.78262077 </i>
    <i name="e_0_energy">   -530.79052827 </i>
   </energy>
  </scstep>
  <scstep>
   <time name="dav">    2.29    2.29</time>
   <time name="total">    4.32    4.32</time>
   <energy>
    <i name="e_fr_energy">   -530.79954232 </i>
    <i name="e_wo_entrp">   -530.78358232 </i>
    <i name="e_0_energy">   -530.79156232 </i>
   </energy>
  </scstep>
  <scstep>
   <time name="dav">    2.35    2.35</time>
   <time name="total">    4.36    4.36</time>
   <energy>
    <i name="e_fr_energy">   -530.80039702 </i>
    <i name="e_wo_entrp">   -530.78447411 </i>
    <i name="e_0_energy">   -530.79243556 </i>
   </energy>
  </scstep>
  <scstep>
   <time name="dav">    2.23    2.24</time>
   <time name="total">    4.26    4.26</time>
   <energy>
    <i name="e_fr_energy">   -530.80118661 </i>
    <i name="e_wo_entrp">   -530.78523254 </i>
    <i name="e_0_energy">   -530.79320957 </i>
   </energy>
  </scstep>
  <scstep>
   <time name="dav">    2.31    2.31</time>
   <time name="total">    4.33    4.34</time>
   <energy>
    <i name="e_fr_energy">   -530.80179133 </i>
    <i name="e_wo_entrp">   -530.78584077 </i>
    <i name="e_0_energy">   -530.79381605 </i>
   </energy>
  </scstep>
  <scstep>
   <time name="dav">    2.40    2.40</time>
   <time name="total">    4.43    4.44</time>
   <energy>
    <i name="e_fr_energy">   -530.80196654 </i>
    <i name="e_wo_entrp">   -530.78606891 </i>
    <i name="e_0_energy">   -530.79401773 </i>
   </energy>
  </scstep>
  <scstep>
   <time name="dav">    2.41    2.41</time>
   <time name="total">    4.43    4.44</time>
   <energy>
    <i name="e_fr_energy">   -530.80209647 </i>
    <i name="e_wo_entrp">   -530.78620595 </i>
    <i name="e_0_energy">   -530.79415121 </i>
   </energy>
  </scstep>
  <scstep>
   <time name="dav">    2.21    2.21</time>
   <time name="total">    4.24    4.24</time>
   <energy>
    <i name="e_fr_energy">   -530.80217589 </i>
    <i name="e_wo_entrp">   -530.78628416 </i>
    <i name="e_0_energy">   -530.79423002 </i>
   </energy>
  </scstep>
  <scstep>
   <time name="dav">    2.16    2.17</time>
   <time name="total">    4.17    4.18</time>
   <energy>
    <i name="e_fr_energy">   -530.80227770 </i>
    <i name="e_wo_entrp">   -530.78640191 </i>
    <i name="e_0_energy">   -530.79433980 </i>
   </energy>
  </scstep>
  <scstep>
   <time name="dav">    2.09    2.09</time>
   <time name="total">    4.10    4.10</time>
   <energy>
    <i name="e_fr_energy">   -530.80244230 </i>
    <i name="e_wo_entrp">   -530.78657271 </i>
    <i name="e_0_energy">   -530.79450751 </i>
   </energy>
  </scstep>
  <scstep>
   <time name="dav">    2.12    2.12</time>
   <time name="total">    4.14    4.15</time>
   <energy>
    <i name="e_fr_energy">   -530.80259182 </i>
    <i name="e_wo_entrp">   -530.78672682 </i>
    <i name="e_0_energy">   -530.79465932 </i>
   </energy>
  </scstep>
  <scstep>
   <time name="dav">    2.16    2.16</time>
   <time name="total">    4.18    4.19</time>
   <energy>
    <i name="e_fr_energy">   -530.80269019 </i>
    <i name="e_wo_entrp">   -530.78682509 </i>
    <i name="e_0_energy">   -530.79475764 </i>
   </energy>
  </scstep>
  <scstep>
   <time name="dav">    1.67    1.68</time>
   <time name="total">    3.69    3.70</time>
   <energy>
    <i name="e_fr_energy">   -530.80270370 </i>
    <i name="e_wo_entrp">   -530.78683955 </i>
    <i name="e_0_energy">   -530.79477163 </i>
   </energy>
  </scstep>
  <scstep>
   <time name="dav">    1.46    1.46</time>
   <time name="total">    3.50    3.50</time>
   <energy>
    <i name="e_fr_energy">   -530.80268109 </i>
    <i name="e_wo_entrp">   -530.78681442 </i>
    <i name="e_0_energy">   -530.79474775 </i>
   </energy>
  </scstep>
  <scstep>
   <time name="dav">    1.42    1.42</time>
   <time name="total">    3.44    3.45</time>
   <energy>
    <i name="e_fr_energy">   -530.80270759 </i>
    <i name="e_wo_entrp">   -530.78684215 </i>
    <i name="e_0_energy">   -530.79477487 </i>
   </energy>
  </scstep>
  <scstep>
   <time name="dav">    2.08    2.08</time>
   <time name="total">    4.11    4.12</time>
   <energy>
    <i name="e_fr_energy">   -530.80302258 </i>
    <i name="e_wo_entrp">   -530.78716734 </i>
    <i name="e_0_energy">   -530.79509496 </i>
   </energy>
  </scstep>
  <scstep>
   <time name="dav">    2.21    2.21</time>
   <time name="total">    4.24    4.24</time>
   <energy>
    <i name="e_fr_energy">   -530.80313461 </i>
    <i name="e_wo_entrp">   -530.78727956 </i>
    <i name="e_0_energy">   -530.79520708 </i>
   </energy>
  </scstep>
  <scstep>
   <time name="dav">    2.02    2.02</time>
   <time name="total">    4.04    4.04</time>
   <energy>
    <i name="e_fr_energy">   -530.80342868 </i>
    <i name="e_wo_entrp">   -530.78758627 </i>
    <i name="e_0_energy">   -530.79550748 </i>
   </energy>
  </scstep>
  <scstep>
   <time name="dav">    1.97    1.97</time>
   <time name="total">    3.99    4.00</time>
   <energy>
    <i name="e_fr_energy">   -530.80365968 </i>
    <i name="e_wo_entrp">   -530.78782204 </i>
    <i name="e_0_energy">   -530.79574086 </i>
   </energy>
  </scstep>
  <scstep>
   <time name="dav">    1.94    1.94</time>
   <time name="total">    3.97    3.98</time>
   <energy>
    <i name="e_fr_energy">   -530.80375439 </i>
    <i name="e_wo_entrp">   -530.78791736 </i>
    <i name="e_0_energy">   -530.79583587 </i>
   </energy>
  </scstep>
  <scstep>
   <time name="dav">    1.77    1.77</time>
   <time name="total">    3.80    3.80</time>
   <energy>
    <i name="e_fr_energy">   -530.80380928 </i>
    <i name="e_wo_entrp">   -530.78797325 </i>
    <i name="e_0_energy">   -530.79589127 </i>
   </energy>
  </scstep>
  <scstep>
   <time name="dav">    2.02    2.02</time>
   <time name="total">    4.05    4.05</time>
   <energy>
    <i name="e_fr_energy">   -530.80353865 </i>
    <i name="e_wo_entrp">   -530.78768771 </i>
    <i name="e_0_energy">   -530.79561318 </i>
   </energy>
  </scstep>
  <scstep>
   <time name="dav">    1.80    1.81</time>
   <time name="total">    3.84    3.85</time>
   <energy>
    <i name="e_fr_energy">   -530.80358344 </i>
    <i name="e_wo_entrp">   -530.78773034 </i>
    <i name="e_0_energy">   -530.79565689 </i>
   </energy>
  </scstep>
  <scstep>
   <time name="dav">    2.08    2.08</time>
   <time name="total">    4.09    4.10</time>
   <energy>
    <i name="e_fr_energy">   -530.80393489 </i>
    <i name="e_wo_entrp">   -530.78807663 </i>
    <i name="e_0_energy">   -530.79600576 </i>
   </energy>
  </scstep>
  <scstep>
   <time name="dav">    1.97    1.97</time>
   <time name="total">    3.99    4.00</time>
   <energy>
    <i name="e_fr_energy">   -530.80453184 </i>
    <i name="e_wo_entrp">   -530.78867765 </i>
    <i name="e_0_energy">   -530.79660475 </i>
   </energy>
  </scstep>
  <scstep>
   <time name="dav">    2.04    2.05</time>
   <time name="total">    4.07    4.08</time>
   <energy>
    <i name="e_fr_energy">   -530.80514210 </i>
    <i name="e_wo_entrp">   -530.78928828 </i>
    <i name="e_0_energy">   -530.79721519 </i>
   </energy>
  </scstep>
  <scstep>
   <time name="dav">    2.05    2.05</time>
   <time name="total">    4.06    4.07</time>
   <energy>
    <i name="e_fr_energy">   -530.80541709 </i>
    <i name="e_wo_entrp">   -530.78956090 </i>
    <i name="e_0_energy">   -530.79748900 </i>
   </energy>
  </scstep>
  <scstep>
   <time name="dav">    2.06    2.06</time>
   <time name="total">    4.10    4.10</time>
   <energy>
    <i name="e_fr_energy">   -530.80568444 </i>
    <i name="e_wo_entrp">   -530.78982419 </i>
    <i name="e_0_energy">   -530.79775432 </i>
   </energy>
  </scstep>
  <scstep>
   <time name="dav">    1.97    1.97</time>
   <time name="total">    3.99    3.99</time>
   <energy>
    <i name="e_fr_energy">   -530.80588299 </i>
    <i name="e_wo_entrp">   -530.79002131 </i>
    <i name="e_0_energy">   -530.79795215 </i>
   </energy>
  </scstep>
  <scstep>
   <time name="dav">    1.97    1.97</time>
   <time name="total">    4.00    4.00</time>
   <energy>
    <i name="e_fr_energy">   -530.80617307 </i>
    <i name="e_wo_entrp">   -530.79030567 </i>
    <i name="e_0_energy">   -530.79823937 </i>
   </energy>
  </scstep>
  <scstep>
   <time name="dav">    1.97    1.98</time>
   <time name="total">    3.99    3.99</time>
   <energy>
    <i name="e_fr_energy">   -530.80660810 </i>
    <i name="e_wo_entrp">   -530.79073691 </i>
    <i name="e_0_energy">   -530.79867251 </i>
   </energy>
  </scstep>
  <scstep>
   <time name="dav">    2.24    2.24</time>
   <time name="total">    4.28    4.28</time>
   <energy>
    <i name="e_fr_energy">   -530.80676232 </i>
    <i name="e_wo_entrp">   -530.79089034 </i>
    <i name="e_0_energy">   -530.79882633 </i>
   </energy>
  </scstep>
  <scstep>
   <time name="dav">    2.02    2.03</time>
   <time name="total">    4.04    4.05</time>
   <energy>
    <i name="e_fr_energy">   -530.80720203 </i>
    <i name="e_wo_entrp">   -530.79132385 </i>
    <i name="e_0_energy">   -530.79926294 </i>
   </energy>
  </scstep>
  <scstep>
   <time name="dav">    2.01    2.01</time>
   <time name="total">    4.04    4.05</time>
   <energy>
    <i name="e_fr_energy">   -530.80742023 </i>
    <i name="e_wo_entrp">   -530.79153884 </i>
    <i name="e_0_energy">   -530.79947954 </i>
   </energy>
  </scstep>
  <scstep>
   <time name="dav">    2.04    2.05</time>
   <time name="total">    4.06    4.06</time>
   <energy>
    <i name="e_fr_energy">   -530.80781286 </i>
    <i name="e_wo_entrp">   -530.79192813 </i>
    <i name="e_0_energy">   -530.79987050 </i>
   </energy>
  </scstep>
  <scstep>
   <time name="dav">    2.05    2.05</time>
   <time name="total">    4.08    4.09</time>
   <energy>
    <i name="e_fr_energy">   -530.80819835 </i>
    <i name="e_wo_entrp">   -530.79231268 </i>
    <i name="e_0_energy">   -530.80025551 </i>
   </energy>
  </scstep>
  <scstep>
   <time name="dav">    2.05    2.06</time>
   <time name="total">    4.07    4.08</time>
   <energy>
    <i name="e_fr_energy">   -530.80848054 </i>
    <i name="e_wo_entrp">   -530.79259111 </i>
    <i name="e_0_energy">   -530.80053583 </i>
   </energy>
  </scstep>
  <scstep>
   <time name="dav">    1.95    1.95</time>
   <time name="total">    3.96    3.97</time>
   <energy>
    <i name="e_fr_energy">   -530.80862133 </i>
    <i name="e_wo_entrp">   -530.79273108 </i>
    <i name="e_0_energy">   -530.80067621 </i>
   </energy>
  </scstep>
  <scstep>
   <time name="dav">    1.83    1.83</time>
   <time name="total">    3.84    3.84</time>
   <energy>
    <i name="e_fr_energy">   -530.80869857 </i>
    <i name="e_wo_entrp">   -530.79280812 </i>
    <i name="e_0_energy">   -530.80075334 </i>
   </energy>
  </scstep>
  <scstep>
   <time name="dav">    1.80    1.80</time>
   <time name="total">    3.82    3.82</time>
   <energy>
    <i name="e_fr_energy">   -530.80874270 </i>
    <i name="e_wo_entrp">   -530.79285069 </i>
    <i name="e_0_energy">   -530.80079669 </i>
   </energy>
  </scstep>
  <scstep>
   <time name="dav">    1.59    1.59</time>
   <time name="total">    3.63    3.64</time>
   <energy>
    <i name="e_fr_energy">   -530.80876344 </i>
    <i name="e_wo_entrp">   -530.79287121 </i>
    <i name="e_0_energy">   -530.80081733 </i>
   </energy>
  </scstep>
  <scstep>
   <time name="dav">    1.91    1.91</time>
   <time name="total">    3.93    3.94</time>
   <energy>
    <i name="e_fr_energy">   -530.80849931 </i>
    <i name="e_wo_entrp">   -530.79261175 </i>
    <i name="e_0_energy">   -530.80055553 </i>
   </energy>
  </scstep>
  <scstep>
   <time name="dav">    1.91    1.91</time>
   <time name="total">    3.92    3.92</time>
   <energy>
    <i name="e_fr_energy">   -530.80854923 </i>
    <i name="e_wo_entrp">   -530.79266122 </i>
    <i name="e_0_energy">   -530.80060522 </i>
   </energy>
  </scstep>
  <scstep>
   <time name="dav">    2.01    2.01</time>
   <time name="total">    4.06    4.06</time>
   <energy>
    <i name="e_fr_energy">   -530.80892854 </i>
    <i name="e_wo_entrp">   -530.79304005 </i>
    <i name="e_0_energy">   -530.80098430 </i>
   </energy>
  </scstep>
  <scstep>
   <time name="dav">    2.08    2.08</time>
   <time name="total">    4.11    4.12</time>
   <energy>
    <i name="e_fr_energy">   -530.80920023 </i>
    <i name="e_wo_entrp">   -530.79331246 </i>
    <i name="e_0_energy">   -530.80125634 </i>
   </energy>
  </scstep>
  <scstep>
   <time name="dav">    1.90    1.90</time>
   <time name="total">    3.94    3.95</time>
   <energy>
    <i name="e_fr_energy">   -530.80931551 </i>
    <i name="e_wo_entrp">   -530.79342742 </i>
    <i name="e_0_energy">   -530.80137147 </i>
   </energy>
  </scstep>
  <scstep>
   <time name="dav">    1.81    1.82</time>
   <time name="total">    3.83    3.84</time>
   <energy>
    <i name="e_fr_energy">   -530.80924385 </i>
    <i name="e_wo_entrp">   -530.79335620 </i>
    <i name="e_0_energy">   -530.80130002 </i>
   </energy>
  </scstep>
  <scstep>
   <time name="dav">    1.87    1.87</time>
   <time name="total">    3.90    3.91</time>
   <energy>
    <i name="e_fr_energy">   -530.80936916 </i>
    <i name="e_wo_entrp">   -530.79348120 </i>
    <i name="e_0_energy">   -530.80142518 </i>
   </energy>
  </scstep>
  <scstep>
   <time name="dav">    1.86    1.86</time>
   <time name="total">    3.87    3.88</time>
   <energy>
    <i name="e_fr_energy">   -530.80921275 </i>
    <i name="e_wo_entrp">   -530.79332239 </i>
    <i name="e_0_energy">   -530.80126757 </i>
   </energy>
  </scstep>
  <scstep>
   <time name="dav">    1.49    1.49</time>
   <time name="total">    3.51    3.51</time>
   <energy>
    <i name="e_fr_energy">   -530.80922102 </i>
    <i name="e_wo_entrp">   -530.79333064 </i>
    <i name="e_0_energy">   -530.80127583 </i>
   </energy>
  </scstep>
  <scstep>
   <time name="dav">    1.78    1.78</time>
   <time name="total">    3.20    3.20</time>
   <energy>
    <i name="alphaZ">   1192.14239942 </i>
    <i name="ewald"> 126526.68828494 </i>
    <i name="hartreedc">-167802.45181391 </i>
    <i name="XCdc">   1348.52451731 </i>
    <i name="pawpsdc">  44305.39507060 </i>
    <i name="pawaedc"> -43612.07205364 </i>
    <i name="eentropy">     -0.01589088 </i>
    <i name="bandstr">  -6298.78723506 </i>
    <i name="atom">  43809.76760834 </i>
    <i name="e_fr_energy">   -530.80911288 </i>
    <i name="e_wo_entrp">   -530.79322200 </i>
    <i name="e_0_energy">   -530.80116744 </i>
   </energy>
  </scstep>
  <structure>
   <crystal>
    <varray name="basis" >
     <v>      11.59819984       0.00000000       0.00000000 </v>
     <v>      -5.79909992      10.04433570       0.00000000 </v>
     <v>       0.00000000       0.00000000      21.04820061 </v>
    </varray>
    <i name="volume">   2452.03565684 </i>
    <varray name="rec_basis" >
     <v>       0.08622028       0.04977930       0.00000000 </v>
     <v>       0.00000000       0.09955860       0.00000000 </v>
     <v>       0.00000000       0.00000000       0.04751000 </v>
    </varray>
   </crystal>
   <varray name="positions" >
    <v>       0.00306000       0.99701000       0.45904000 </v>
    <v>       0.22222000       0.11111000       0.30996000 </v>
    <v>       0.32549000       0.99694000       0.46156000 </v>
    <v>       0.55556000       0.11111000       0.30996000 </v>
    <v>       0.66956000       0.00575000       0.46395000 </v>
    <v>       0.88889000       0.11111000       0.30996000 </v>
    <v>       0.99429000       0.33043000       0.46388000 </v>
    <v>       0.22222000       0.44444000       0.30996000 </v>
    <v>       0.33282000       0.33388000       0.45848000 </v>
    <v>       0.55556000       0.44444000       0.30996000 </v>
    <v>       0.67135000       0.32877000       0.45654000 </v>
    <v>       0.88889000       0.44444000       0.30996000 </v>
    <v>       0.00316000       0.67453000       0.46154000 </v>
    <v>       0.22222000       0.77778000       0.30996000 </v>
    <v>       0.33406000       0.66594000       0.45975000 </v>
    <v>       0.55556000       0.77778000       0.30996000 </v>
    <v>       0.66613000       0.66721000       0.45873000 </v>
    <v>       0.88889000       0.77778000       0.30996000 </v>
    <v>       0.00565000       0.99485000       0.58210000 </v>
    <v>       0.11111000       0.22222000       0.27247000 </v>
    <v>       0.22656000       0.11765000       0.42160000 </v>
    <v>       0.10918000       0.21885000       0.50297000 </v>
    <v>       0.00000000       0.00000000       0.34745000 </v>
    <v>       0.33556000       0.03161000       0.57938000 </v>
    <v>       0.44444000       0.22222000       0.27247000 </v>
    <v>       0.55030000       0.10727000       0.42191000 </v>
    <v>       0.45382000       0.23523000       0.50060000 </v>
    <v>       0.33333000       0.00000000       0.34745000 </v>
    <v>       0.64283000       0.98322000       0.57804000 </v>
    <v>       0.77778000       0.22222000       0.27247000 </v>
    <v>       0.89158000       0.10857000       0.42339000 </v>
    <v>       0.77761000       0.22235000       0.49035000 </v>
    <v>       0.66667000       0.00000000       0.34745000 </v>
    <v>       0.01630000       0.35688000       0.57800000 </v>
    <v>       0.11111000       0.55556000       0.27247000 </v>
    <v>       0.21763000       0.43414000       0.42280000 </v>
    <v>       0.10806000       0.56205000       0.50220000 </v>
    <v>       0.00000000       0.33333000       0.34745000 </v>
    <v>       0.31656000       0.34768000       0.59359000 </v>
    <v>       0.44444000       0.55556000       0.27247000 </v>
    <v>       0.55458000       0.44564000       0.42043000 </v>
    <v>       0.44686000       0.55242000       0.50293000 </v>
    <v>       0.33333000       0.33333000       0.34745000 </v>
    <v>       0.65920000       0.34118000       0.59127000 </v>
    <v>       0.77778000       0.55556000       0.27247000 </v>
    <v>       0.89277000       0.44965000       0.42186000 </v>
    <v>       0.76508000       0.54608000       0.50064000 </v>
    <v>       0.66667000       0.33333000       0.34745000 </v>
    <v>       0.96990000       0.66367000       0.57908000 </v>
    <v>       0.11111000       0.88889000       0.27247000 </v>
    <v>       0.22044000       0.77962000       0.42116000 </v>
    <v>       0.11038000       0.88973000       0.48834000 </v>
    <v>       0.00000000       0.66667000       0.34745000 </v>
    <v>       0.30517000       0.69453000       0.59704000 </v>
    <v>       0.44444000       0.88889000       0.27247000 </v>
    <v>       0.56586000       0.78233000       0.42294000 </v>
    <v>       0.43772000       0.89209000       0.50232000 </v>
    <v>       0.33333000       0.66667000       0.34745000 </v>
    <v>       0.65422000       0.68098000       0.59145000 </v>
    <v>       0.77778000       0.88889000       0.27247000 </v>
    <v>       0.88226000       0.77347000       0.42165000 </v>
    <v>       0.78140000       0.89145000       0.50298000 </v>
    <v>       0.66667000       0.66667000       0.34745000 </v>
    <v>       0.42925000       0.58667000       0.65283000 </v>
    <v>       0.54415000       0.47272000       0.67255000 </v>
    <v>       0.57066000       0.45780000       0.52863000 </v>
    <v>       0.48481000       0.51415000       0.58780000 </v>
    <v>       0.15960000       0.17340000       0.58377000 </v>
    <v>       0.49288000       0.18566000       0.58271000 </v>
    <v>       0.81547000       0.50671000       0.58253000 </v>
    <v>       0.82744000       0.84064000       0.58339000 </v>
    <v>       0.47311000       0.84632000       0.58615000 </v>
    <v>       0.15355000       0.52643000       0.58607000 </v>
   </varray>
  </structure>
  <varray name="forces" >
   <v>       0.05630525      -0.00897293      -0.23142918 </v>
   <v>       0.17034786       0.01019884      -0.47716507 </v>
   <v>      -0.02715246       0.05092633      -0.16500119 </v>
   <v>      -0.00078039      -0.38747386      -0.26761010 </v>
   <v>      -0.03361031      -0.01804287      -0.42238566 </v>
   <v>      -0.15283374       0.07866654      -0.07003873 </v>
   <v>      -0.00391302       0.02567053      -0.32741430 </v>
   <v>      -0.16800915       0.03241631      -0.08313652 </v>
   <v>       0.44375037       0.55661320       0.07383631 </v>
   <v>      -0.14068227       0.11752754      -0.28578019 </v>
   <v>      -0.50836663       0.22986577       0.13643139 </v>
   <v>       0.32629031       0.20277131      -0.27173142 </v>
   <v>      -0.05455908       0.01268907      -0.22576554 </v>
   <v>       0.04743525      -0.03098322      -0.13623348 </v>
   <v>       0.24333026      -0.12634436      -0.15409398 </v>
   <v>      -0.08072495       0.11959664      -0.04560143 </v>
   <v>      -0.27324296      -0.89404354       0.22240365 </v>
   <v>       0.04585085      -0.17439119      -0.44210483 </v>
   <v>       0.14170348      -0.13843853       0.11338180 </v>
   <v>       0.02195777      -0.06196029      -0.01940261 </v>
   <v>      -0.03195300      -0.05257575       0.06736377 </v>
   <v>       0.02105281      -0.09813376       0.05084810 </v>
   <v>       0.18742446      -0.09752564       0.39735492 </v>
   <v>       0.05461734       0.07419053       0.06341985 </v>
   <v>       0.00198380      -0.02846434       0.00216669 </v>
   <v>       0.04355574      -0.04802330       0.06682747 </v>
   <v>       0.03194349      -1.25085851      -0.07687129 </v>
   <v>      -0.19109535       0.07363156       0.28210880 </v>
   <v>      -0.22009833      -0.40683969       0.21458376 </v>
   <v>      -0.02212291       0.01151125      -0.01298488 </v>
   <v>      -0.01068011       0.00372207       0.08966490 </v>
   <v>       0.09328840      -0.06092009       0.06601168 </v>
   <v>       0.02017668       0.22145807       0.41398734 </v>
   <v>       0.16990352       0.20558226       0.12324397 </v>
   <v>      -0.02383400      -0.05029347      -0.03529077 </v>
   <v>      -0.14720115      -0.07035261       0.03182941 </v>
   <v>      -0.00805898      -0.10333649       0.12336519 </v>
   <v>      -0.17378064      -0.12674247       0.40778184 </v>
   <v>      -0.59044448      -0.98322795      -0.69722670 </v>
   <v>       0.00116099      -0.01238584      -0.00986619 </v>
   <v>      -0.01234979      -0.17451627      -1.73467016 </v>
   <v>      -2.46407007       1.13394137      -1.30904116 </v>
   <v>       0.02424998       0.01661557       0.19723529 </v>
   <v>       0.47371167      -0.15526780       0.17498255 </v>
   <v>       0.02861292       0.00308378      -0.00196742 </v>
   <v>       0.05127065      -0.02441122       0.06779247 </v>
   <v>       2.46052414       1.19719908      -0.35158612 </v>
   <v>       0.16630204      -0.09780536       0.32553944 </v>
   <v>      -0.08407356      -0.14800592       0.15891856 </v>
   <v>      -0.08775297       0.05864688      -0.01589072 </v>
   <v>      -0.07020673       0.03047762       0.06463074 </v>
   <v>      -0.05173135       0.05324361       0.06599870 </v>
   <v>      -0.15121509       0.12724424       0.26760565 </v>
   <v>       0.02435784       0.47403718      -0.40029744 </v>
   <v>       0.02593292       0.05074342      -0.03566217 </v>
   <v>      -0.06539186       0.20109390       0.02190975 </v>
   <v>       0.07618438       0.09982260       0.07934954 </v>
   <v>       0.16371900      -0.09710023      -0.13538522 </v>
   <v>       0.73108734       2.03046736      -0.61693031 </v>
   <v>       0.06328595       0.02391431      -0.02244271 </v>
   <v>       0.10162725       0.09244135       0.05551228 </v>
   <v>       0.11336931       0.07910304       0.06427195 </v>
   <v>      -0.00802719      -0.03892487       0.12554930 </v>
   <v>      -0.49751663       0.07579020      -0.60321780 </v>
   <v>      -0.58828641      -0.04627418      -1.71935302 </v>
   <v>      -1.65592662      -0.65786794       1.92354921 </v>
   <v>       2.50646920      -0.88542469       4.28606412 </v>
   <v>       0.02586843       0.60432389       0.01462558 </v>
   <v>       0.06699982       0.12746503      -0.02383974 </v>
   <v>      -0.07810837      -0.10156508      -0.04766429 </v>
   <v>      -0.52254086      -0.48502541       0.06800191 </v>
   <v>      -0.02171495      -0.37803844       0.33078531 </v>
   <v>      -0.00359511       0.01386584       0.23614914 </v>
  </varray>
  <varray name="stress" >
   <v>      -2.55809113      -5.84651714       0.12247195 </v>
   <v>      -5.84666085     -10.72084639       0.05412241 </v>
   <v>       0.12260937       0.05445368       1.84211774 </v>
  </varray>
  <energy>
   <i name="e_fr_energy">   -530.80911288 </i>
   <i name="e_wo_entrp">   -530.79322200 </i>
   <i name="e_0_energy">   -530.80116744 </i>
  </energy>
  <time name="totalsc">  375.76  376.11</time>
 </calculation>
 <calculation>
  <scstep>
   <time name="dav">    1.57    1.57</time>
   <time name="total">    3.60    3.60</time>
   <energy>
    <i name="alphaZ">   1192.14239942 </i>
    <i name="ewald"> 126318.47268780 </i>
    <i name="hartreedc">-167582.43890111 </i>
    <i name="XCdc">   1348.79839255 </i>
    <i name="pawpsdc">  44305.38642546 </i>
    <i name="pawaedc"> -43612.06443378 </i>
    <i name="eentropy">     -0.02179972 </i>
    <i name="bandstr">  -6309.36552627 </i>
    <i name="atom">  43809.76760834 </i>
    <i name="e_fr_energy">   -529.32314731 </i>
    <i name="e_wo_entrp">   -529.30134758 </i>
    <i name="e_0_energy">   -529.31224744 </i>
   </energy>
  </scstep>
  <scstep>
   <time name="dav">    2.17    2.17</time>
   <time name="total">    4.20    4.20</time>
   <energy>
    <i name="e_fr_energy">   -532.82169930 </i>
    <i name="e_wo_entrp">   -532.78479798 </i>
    <i name="e_0_energy">   -532.80324864 </i>
   </energy>
  </scstep>
  <scstep>
   <time name="dav">    2.26    2.26</time>
   <time name="total">    4.28    4.28</time>
   <energy>
    <i name="e_fr_energy">   -531.71018978 </i>
    <i name="e_wo_entrp">   -531.68089585 </i>
    <i name="e_0_energy">   -531.69554281 </i>
   </energy>
  </scstep>
  <scstep>
   <time name="dav">    2.55    2.56</time>
   <time name="total">    4.60    4.60</time>
   <energy>
    <i name="e_fr_energy">   -531.73741289 </i>
    <i name="e_wo_entrp">   -531.71716419 </i>
    <i name="e_0_energy">   -531.72728854 </i>
   </energy>
  </scstep>
  <scstep>
   <time name="dav">    2.21    2.21</time>
   <time name="total">    4.24    4.24</time>
   <energy>
    <i name="e_fr_energy">   -531.93920930 </i>
    <i name="e_wo_entrp">   -531.93597204 </i>
    <i name="e_0_energy">   -531.93759067 </i>
   </energy>
  </scstep>
  <scstep>
   <time name="dav">    2.16    2.16</time>
   <time name="total">    4.17    4.18</time>
   <energy>
    <i name="e_fr_energy">   -532.18425627 </i>
    <i name="e_wo_entrp">   -532.16547688 </i>
    <i name="e_0_energy">   -532.17486658 </i>
   </energy>
  </scstep>
  <scstep>
   <time name="dav">    2.29    2.29</time>
   <time name="total">    4.30    4.31</time>
   <energy>
    <i name="e_fr_energy">   -532.12078268 </i>
    <i name="e_wo_entrp">   -532.08812686 </i>
    <i name="e_0_energy">   -532.10445477 </i>
   </energy>
  </scstep>
  <scstep>
   <time name="dav">    2.15    2.15</time>
   <time name="total">    4.15    4.15</time>
   <energy>
    <i name="e_fr_energy">   -532.12140975 </i>
    <i name="e_wo_entrp">   -532.12134716 </i>
    <i name="e_0_energy">   -532.12137845 </i>
   </energy>
  </scstep>
  <scstep>
   <time name="dav">    2.29    2.29</time>
   <time name="total">    4.29    4.29</time>
   <energy>
    <i name="e_fr_energy">   -532.22144470 </i>
    <i name="e_wo_entrp">   -532.22143984 </i>
    <i name="e_0_energy">   -532.22144227 </i>
   </energy>
  </scstep>
  <scstep>
   <time name="dav">    2.14    2.14</time>
   <time name="total">    4.17    4.18</time>
   <energy>
    <i name="e_fr_energy">   -532.20714921 </i>
    <i name="e_wo_entrp">   -532.20594706 </i>
    <i name="e_0_energy">   -532.20654814 </i>
   </energy>
  </scstep>
  <scstep>
   <time name="dav">    2.36    2.36</time>
   <time name="total">    4.37    4.37</time>
   <energy>
    <i name="e_fr_energy">   -532.21891891 </i>
    <i name="e_wo_entrp">   -532.21641558 </i>
    <i name="e_0_energy">   -532.21766725 </i>
   </energy>
  </scstep>
  <scstep>
   <time name="dav">    2.51    2.51</time>
   <time name="total">    4.54    4.54</time>
   <energy>
    <i name="e_fr_energy">   -532.23054027 </i>
    <i name="e_wo_entrp">   -532.22888309 </i>
    <i name="e_0_energy">   -532.22971168 </i>
   </energy>
  </scstep>
  <scstep>
   <time name="dav">    2.13    2.13</time>
   <time name="total">    4.16    4.16</time>
   <energy>
    <i name="e_fr_energy">   -532.24163432 </i>
    <i name="e_wo_entrp">   -532.23874927 </i>
    <i name="e_0_energy">   -532.24019180 </i>
   </energy>
  </scstep>
  <scstep>
   <time name="dav">    2.51    2.51</time>
   <time name="total">    4.52    4.53</time>
   <energy>
    <i name="e_fr_energy">   -532.25486929 </i>
    <i name="e_wo_entrp">   -532.25041819 </i>
    <i name="e_0_energy">   -532.25264374 </i>
   </energy>
  </scstep>
  <scstep>
   <time name="dav">    2.21    2.21</time>
   <time name="total">    4.25    4.25</time>
   <energy>
    <i name="e_fr_energy">   -532.26411365 </i>
    <i name="e_wo_entrp">   -532.26122077 </i>
    <i name="e_0_energy">   -532.26266721 </i>
   </energy>
  </scstep>
  <scstep>
   <time name="dav">    2.36    2.36</time>
   <time name="total">    4.39    4.39</time>
   <energy>
    <i name="e_fr_energy">   -532.27288889 </i>
    <i name="e_wo_entrp">   -532.27058236 </i>
    <i name="e_0_energy">   -532.27173563 </i>
   </energy>
  </scstep>
  <scstep>
   <time name="dav">    2.11    2.11</time>
   <time name="total">    4.12    4.12</time>
   <energy>
    <i name="e_fr_energy">   -532.28209391 </i>
    <i name="e_wo_entrp">   -532.27862639 </i>
    <i name="e_0_energy">   -532.28036015 </i>
   </energy>
  </scstep>
  <scstep>
   <time name="dav">    2.56    2.56</time>
   <time name="total">    4.56    4.56</time>
   <energy>
    <i name="e_fr_energy">   -532.29056009 </i>
    <i name="e_wo_entrp">   -532.28678636 </i>
    <i name="e_0_energy">   -532.28867323 </i>
   </energy>
  </scstep>
  <scstep>
   <time name="dav">    2.28    2.28</time>
[...]
       <r>   -29.7927     0.0000    18.0000 </r>
       <r>   -29.6584     0.0000    18.0000 </r>
       <r>   -29.5242     0.0000    18.0000 </r>
       <r>   -29.3900     0.0000    18.0000 </r>
       <r>   -29.2558     0.0000    18.0000 </r>
       <r>   -29.1216     0.0000    18.0000 </r>
       <r>   -28.9874     0.0000    18.0000 </r>
       <r>   -28.8531     0.0000    18.0000 </r>
       <r>   -28.7189     0.0000    18.0000 </r>
       <r>   -28.5847     0.0000    18.0000 </r>
       <r>   -28.4505     0.0000    18.0000 </r>
       <r>   -28.3163     0.0000    18.0000 </r>
       <r>   -28.1820     0.0000    18.0000 </r>
       <r>   -28.0478     0.0000    18.0000 </r>
       <r>   -27.9136     0.0000    18.0000 </r>
       <r>   -27.7794     0.0000    18.0000 </r>
       <r>   -27.6452     0.0000    18.0000 </r>
       <r>   -27.5110     0.0000    18.0000 </r>
       <r>   -27.3767     0.0000    18.0000 </r>
       <r>   -27.2425     0.0000    18.0000 </r>
       <r>   -27.1083     0.0000    18.0000 </r>
       <r>   -26.9741     0.0000    18.0000 </r>
       <r>   -26.8399     0.0000    18.0000 </r>
       <r>   -26.7057     0.0000    18.0000 </r>
       <r>   -26.5714     0.0000    18.0000 </r>
       <r>   -26.4372     0.0000    18.0000 </r>
       <r>   -26.3030     0.0000    18.0000 </r>
       <r>   -26.1688     0.0000    18.0000 </r>
       <r>   -26.0346     0.0000    18.0000 </r>
       <r>   -25.9003     0.0000    18.0000 </r>
       <r>   -25.7661     0.0000    18.0000 </r>
       <r>   -25.6319     0.0000    18.0000 </r>
       <r>   -25.4977     0.0000    18.0000 </r>
       <r>   -25.3635     0.0000    18.0000 </r>
       <r>   -25.2293     0.0000    18.0000 </r>
       <r>   -25.0950     0.0000    18.0000 </r>
       <r>   -24.9608     0.0000    18.0000 </r>
       <r>   -24.8266     0.0000    18.0000 </r>
       <r>   -24.6924     0.0000    18.0000 </r>
       <r>   -24.5582     0.0000    18.0000 </r>
       <r>   -24.4240     0.0000    18.0000 </r>
       <r>   -24.2897     0.0000    18.0000 </r>
       <r>   -24.1555     0.0000    18.0000 </r>
       <r>   -24.0213     0.0000    18.0000 </r>
       <r>   -23.8871     0.0000    18.0000 </r>
       <r>   -23.7529     0.0000    18.0000 </r>
       <r>   -23.6186     0.0000    18.0000 </r>
       <r>   -23.4844     0.0000    18.0000 </r>
       <r>   -23.3502     0.0000    18.0000 </r>
       <r>   -23.2160     0.0000    18.0000 </r>
       <r>   -23.0818     0.0000    18.0000 </r>
       <r>   -22.9476     0.0000    18.0000 </r>
       <r>   -22.8133     0.0000    18.0000 </r>
       <r>   -22.6791     0.0000    18.0000 </r>
       <r>   -22.5449     0.0000    18.0000 </r>
       <r>   -22.4107     0.0000    18.0000 </r>
       <r>   -22.2765     0.0000    18.0000 </r>
       <r>   -22.1422     0.0000    18.0000 </r>
       <r>   -22.0080     0.0000    18.0000 </r>
       <r>   -21.8738     0.0000    18.0000 </r>
       <r>   -21.7396     0.0000    18.0000 </r>
       <r>   -21.6054     0.0000    18.0000 </r>
       <r>   -21.4712     0.0000    18.0000 </r>
       <r>   -21.3369     0.0001    18.0000 </r>
       <r>   -21.2027     2.3519    18.3157 </r>
       <r>   -21.0685     5.0959    18.9996 </r>
       <r>   -20.9343     4.4067    19.5911 </r>
       <r>   -20.8001    22.9033    22.6651 </r>
       <r>   -20.6659    19.0994    25.2286 </r>
       <r>   -20.5316    32.1372    29.5420 </r>
       <r>   -20.3974    22.8464    32.6084 </r>
       <r>   -20.2632    25.6200    36.0470 </r>
       <r>   -20.1290    10.0150    37.3912 </r>
       <r>   -19.9948    12.8635    39.1177 </r>
       <r>   -19.8605    11.3382    40.6395 </r>
       <r>   -19.7263    27.7217    44.3603 </r>
       <r>   -19.5921    14.2381    46.2713 </r>
       <r>   -19.4579    19.1879    48.8466 </r>
       <r>   -19.3237     9.0962    50.0675 </r>
       <r>   -19.1895    11.5311    51.6152 </r>
       <r>   -19.0552     5.6917    52.3791 </r>
       <r>   -18.9210     5.5773    53.1277 </r>
       <r>   -18.7868    10.4022    54.5238 </r>
       <r>   -18.6526     7.9210    55.5870 </r>
       <r>   -18.5184    12.6624    57.2865 </r>
       <r>   -18.3841    30.9889    61.4458 </r>
       <r>   -18.2499    53.9756    68.6902 </r>
       <r>   -18.1157    42.7216    74.4242 </r>
       <r>   -17.9815    55.9315    81.9312 </r>
       <r>   -17.8473    30.3397    86.0034 </r>
       <r>   -17.7131    16.5431    88.2238 </r>
       <r>   -17.5788     5.9404    89.0211 </r>
       <r>   -17.4446     9.2941    90.2685 </r>
       <r>   -17.3104     8.5570    91.4170 </r>
       <r>   -17.1762     4.4009    92.0077 </r>
       <r>   -17.0420     6.9718    92.9434 </r>
       <r>   -16.9078    14.4824    94.8872 </r>
       <r>   -16.7735     9.0901    96.1073 </r>
       <r>   -16.6393    13.3591    97.9003 </r>
       <r>   -16.5051     5.9077    98.6932 </r>
       <r>   -16.3709     4.3516    99.2773 </r>
       <r>   -16.2367     5.3809    99.9995 </r>
       <r>   -16.1024     4.3823   100.5877 </r>
       <r>   -15.9682    14.2606   102.5017 </r>
       <r>   -15.8340    24.0122   105.7246 </r>
       <r>   -15.6998    16.6597   107.9606 </r>
       <r>   -15.5656    15.4613   110.0358 </r>
       <r>   -15.4314    18.3906   112.5041 </r>
       <r>   -15.2971    13.3712   114.2988 </r>
       <r>   -15.1629    23.5865   117.4645 </r>
       <r>   -15.0287    13.8324   119.3210 </r>
       <r>   -14.8945     5.0558   119.9996 </r>
       <r>   -14.7603     0.0028   120.0000 </r>
       <r>   -14.6261     0.0000   120.0000 </r>
       <r>   -14.4918     0.0000   120.0000 </r>
       <r>   -14.3576     0.0000   120.0000 </r>
       <r>   -14.2234     0.0000   120.0000 </r>
       <r>   -14.0892     0.0000   120.0000 </r>
       <r>   -13.9550     0.0000   120.0000 </r>
       <r>   -13.8207     0.0000   120.0000 </r>
       <r>   -13.6865     0.0000   120.0000 </r>
       <r>   -13.5523     0.0000   120.0000 </r>
       <r>   -13.4181     0.0000   120.0000 </r>
       <r>   -13.2839     0.0000   120.0000 </r>
       <r>   -13.1497     0.0000   120.0000 </r>
       <r>   -13.0154     0.0000   120.0000 </r>
       <r>   -12.8812     0.0000   120.0000 </r>
       <r>   -12.7470     0.0000   120.0000 </r>
       <r>   -12.6128     0.0000   120.0000 </r>
       <r>   -12.4786     0.0000   120.0000 </r>
       <r>   -12.3443     0.0000   120.0000 </r>
       <r>   -12.2101     0.0000   120.0000 </r>
       <r>   -12.0759     0.0000   120.0000 </r>
       <r>   -11.9417     0.0000   120.0000 </r>
       <r>   -11.8075     0.0000   120.0000 </r>
       <r>   -11.6733     0.0000   120.0000 </r>
       <r>   -11.5390     0.0000   120.0000 </r>
       <r>   -11.4048     0.0000   120.0000 </r>
       <r>   -11.2706     0.0000   120.0000 </r>
       <r>   -11.1364     0.0000   120.0000 </r>
       <r>   -11.0022     0.0000   120.0000 </r>
       <r>   -10.8680     0.0000   120.0000 </r>
       <r>   -10.7337     0.0000   120.0000 </r>
       <r>   -10.5995     0.0000   120.0000 </r>
       <r>   -10.4653     0.0000   120.0000 </r>
       <r>   -10.3311     0.0000   120.0000 </r>
       <r>   -10.1969     0.0000   120.0000 </r>
       <r>   -10.0626     0.0000   120.0000 </r>
       <r>    -9.9284     0.0000   120.0000 </r>
       <r>    -9.7942     0.0000   120.0000 </r>
       <r>    -9.6600     0.0000   120.0000 </r>
       <r>    -9.5258     0.0000   120.0000 </r>
       <r>    -9.3916     0.0000   120.0000 </r>
       <r>    -9.2573     0.0000   120.0000 </r>
       <r>    -9.1231     0.0000   120.0000 </r>
       <r>    -8.9889     0.0000   120.0000 </r>
       <r>    -8.8547     0.0000   120.0000 </r>
       <r>    -8.7205     1.2773   120.1714 </r>
       <r>    -8.5863     6.9200   121.1002 </r>
       <r>    -8.4520     6.6612   121.9943 </r>
       <r>    -8.3178     1.1395   122.1472 </r>
       <r>    -8.1836     7.8580   123.2019 </r>
       <r>    -8.0494     5.9353   123.9985 </r>
       <r>    -7.9152     0.0110   124.0000 </r>
       <r>    -7.7809     0.0002   124.0000 </r>
       <r>    -7.6467     3.1387   124.4213 </r>
       <r>    -7.5125     4.3104   124.9998 </r>
       <r>    -7.3783     0.0291   125.0037 </r>
       <r>    -7.2441    10.2598   126.3808 </r>
       <r>    -7.1099    11.7404   127.9566 </r>
       <r>    -6.9756     2.8455   128.3385 </r>
       <r>    -6.8414     7.7512   129.3788 </r>
       <r>    -6.7072    17.5653   131.7364 </r>
       <r>    -6.5730    10.9349   133.2041 </r>
       <r>    -6.4388    13.9302   135.0737 </r>
       <r>    -6.3045    14.3677   137.0021 </r>
       <r>    -6.1703    12.8963   138.7331 </r>
       <r>    -6.0361     7.0308   139.6767 </r>
       <r>    -5.9019    22.6469   142.7163 </r>
       <r>    -5.7677    12.7691   144.4302 </r>
       <r>    -5.6335    20.1877   147.1397 </r>
       <r>    -5.4992    12.4499   148.8107 </r>
       <r>    -5.3650    17.3543   151.1400 </r>
       <r>    -5.2308    31.4184   155.3569 </r>
       <r>    -5.0966    27.1712   159.0038 </r>
       <r>    -4.9624    38.1997   164.1308 </r>
       <r>    -4.8282    39.8108   169.4742 </r>
       <r>    -4.6939    32.5830   173.8474 </r>
       <r>    -4.5597    38.1973   178.9741 </r>
       <r>    -4.4255    28.9967   182.8660 </r>
       <r>    -4.2913    23.3552   186.0007 </r>
       <r>    -4.1571    26.5397   189.5628 </r>
       <r>    -4.0228    38.8604   194.7785 </r>
       <r>    -3.8886    50.1377   201.5079 </r>
       <r>    -3.7544    37.9785   206.6053 </r>
       <r>    -3.6202    37.3250   211.6150 </r>
       <r>    -3.4860    26.9933   215.2380 </r>
       <r>    -3.3518    31.5893   219.4778 </r>
       <r>    -3.2175    35.0772   224.1858 </r>
       <r>    -3.0833    40.1646   229.5766 </r>
       <r>    -2.9491    42.9999   235.3480 </r>
       <r>    -2.8149    24.1060   238.5834 </r>
       <r>    -2.6807    57.4920   246.2999 </r>
       <r>    -2.5464    55.5364   253.7538 </r>
       <r>    -2.4122    37.1825   258.7444 </r>
       <r>    -2.2780    40.2124   264.1416 </r>
       <r>    -2.1438    25.6483   267.5841 </r>
       <r>    -2.0096    10.5076   268.9944 </r>
       <r>    -1.8754     4.1770   269.5550 </r>
       <r>    -1.7411    16.6788   271.7936 </r>
       <r>    -1.6069    11.7258   273.3674 </r>
       <r>    -1.4727    18.9510   275.9110 </r>
       <r>    -1.3385    14.0238   277.7932 </r>
       <r>    -1.2043     2.9914   278.1947 </r>
       <r>    -1.0701     6.0134   279.0018 </r>
       <r>    -0.9358     6.4235   279.8640 </r>
       <r>    -0.8016     1.4504   280.0586 </r>
       <r>    -0.6674     6.9177   280.9871 </r>
       <r>    -0.5332     0.0959   281.0000 </r>
       <r>    -0.3990     0.0000   281.0000 </r>
       <r>    -0.2647     0.1975   281.0265 </r>
       <r>    -0.1305    10.5943   282.4485 </r>
       <r>     0.0037    23.6912   285.6282 </r>
       <r>     0.1379    61.2768   293.8527 </r>
       <r>     0.2721   161.1214   315.4780 </r>
       <r>     0.4063   235.3400   347.0648 </r>
       <r>     0.5406   196.7218   373.4684 </r>
       <r>     0.6748    78.2768   383.9746 </r>
       <r>     0.8090     0.1896   384.0000 </r>
       <r>     0.9432     0.0000   384.0000 </r>
       <r>     1.0774     0.0000   384.0000 </r>
       <r>     1.2116     0.0000   384.0000 </r>
       <r>     1.3459     0.0000   384.0000 </r>
       <r>     1.4801     0.0000   384.0000 </r>
       <r>     1.6143     0.0000   384.0000 </r>
       <r>     1.7485     0.0000   384.0000 </r>
       <r>     1.8827     0.0000   384.0000 </r>
       <r>     2.0170     0.0000   384.0000 </r>
       <r>     2.1512     0.0000   384.0000 </r>
       <r>     2.2854     0.0000   384.0000 </r>
       <r>     2.4196     0.0000   384.0000 </r>
      </set>
     </set>
    </array>
   </total>
  </dos>
 </calculation>
 <structure name="finalpos" >
  <crystal>
   <varray name="basis" >
    <v>      11.59819984       0.00000000       0.00000000 </v>
    <v>      -5.79909992      10.04433570       0.00000000 </v>
    <v>       0.00000000       0.00000000      21.04820061 </v>
   </varray>
   <i name="volume">   2452.03565684 </i>
   <varray name="rec_basis" >
    <v>       0.08622028       0.04977930       0.00000000 </v>
    <v>       0.00000000       0.09955860       0.00000000 </v>
    <v>       0.00000000       0.00000000       0.04751000 </v>
   </varray>
  </crystal>
  <varray name="positions" >
   <v>       0.00718585       0.99816717       0.45660575 </v>
   <v>       0.22222000       0.11111000       0.30996000 </v>
   <v>       0.32805407       0.99530800       0.46442471 </v>
   <v>       0.55556000       0.11111000       0.30996000 </v>
   <v>       0.66838981       0.00335725       0.46113571 </v>
   <v>       0.88889000       0.11111000       0.30996000 </v>
   <v>       0.99387014       0.33142135       0.45835734 </v>
   <v>       0.22222000       0.44444000       0.30996000 </v>
   <v>       0.33915645       0.34087348       0.45975496 </v>
   <v>       0.55556000       0.44444000       0.30996000 </v>
   <v>       0.67113156       0.33078877       0.45664709 </v>
   <v>       0.88889000       0.44444000       0.30996000 </v>
   <v>       0.00212755       0.67147526       0.45985232 </v>
   <v>       0.22222000       0.77778000       0.30996000 </v>
   <v>       0.32773815       0.66304673       0.46036271 </v>
   <v>       0.55556000       0.77778000       0.30996000 </v>
   <v>       0.66329055       0.66373648       0.46545643 </v>
   <v>       0.88889000       0.77778000       0.30996000 </v>
   <v>       0.95509498       0.05258894       0.61025711 </v>
   <v>       0.11111000       0.22222000       0.27247000 </v>
   <v>       0.22258306       0.11831191       0.42133954 </v>
   <v>       0.10819604       0.21961235       0.50595509 </v>
   <v>       0.00000000       0.00000000       0.34745000 </v>
   <v>       0.40145849       0.06975320       0.57942471 </v>
   <v>       0.44444000       0.22222000       0.27247000 </v>
   <v>       0.55504772       0.10653412       0.42156453 </v>
   <v>       0.43981108       0.21815823       0.48915050 </v>
   <v>       0.33333000       0.00000000       0.34745000 </v>
   <v>       0.62832551       0.91728474       0.57631538 </v>
   <v>       0.77778000       0.22222000       0.27247000 </v>
   <v>       0.89227066       0.10992203       0.42144741 </v>
   <v>       0.77914902       0.22062564       0.49334123 </v>
   <v>       0.66667000       0.00000000       0.34745000 </v>
   <v>       0.04154848       0.42185180       0.64008896 </v>
   <v>       0.11111000       0.55556000       0.27247000 </v>
   <v>       0.21591031       0.43238678       0.42143396 </v>
   <v>       0.09754083       0.53888251       0.50300758 </v>
   <v>       0.00000000       0.33333000       0.34745000 </v>
   <v>       0.27373911       0.37351550       0.61362470 </v>
   <v>       0.44444000       0.55556000       0.27247000 </v>
   <v>       0.55763967       0.45023645       0.42116027 </v>
   <v>       0.43275795       0.55315909       0.50635902 </v>
   <v>       0.33333000       0.33333000       0.34745000 </v>
   <v>       0.67762022       0.34751183       0.61443781 </v>
   <v>       0.77778000       0.55556000       0.27247000 </v>
   <v>       0.88956688       0.44739352       0.42000439 </v>
   <v>       0.77677463       0.54721202       0.50573913 </v>
   <v>       0.66667000       0.33333000       0.34745000 </v>
   <v>       0.99545252       0.67294514       0.57436366 </v>
   <v>       0.11111000       0.88889000       0.27247000 </v>
   <v>       0.21617015       0.77770295       0.42220805 </v>
   <v>       0.11056338       0.89535597       0.49350112 </v>
   <v>       0.00000000       0.66667000       0.34745000 </v>
   <v>       0.25228421       0.73921505       0.59889533 </v>
   <v>       0.44444000       0.88889000       0.27247000 </v>
   <v>       0.56695775       0.78299517       0.42521726 </v>
   <v>       0.44297260       0.89770116       0.50517463 </v>
   <v>       0.33333000       0.66667000       0.34745000 </v>
   <v>       0.65720346       0.69139102       0.57728079 </v>
   <v>       0.77778000       0.88889000       0.27247000 </v>
   <v>       0.88311067       0.77207531       0.42287101 </v>
   <v>       0.79547188       0.89651249       0.50125521 </v>
   <v>       0.66667000       0.66667000       0.34745000 </v>
   <v>       0.43386979       0.67328465       0.63604610 </v>
   <v>       0.52180071       0.50216282       0.67884173 </v>
   <v>       0.50875573       0.41240908       0.55486671 </v>
   <v>       0.47539028       0.53924437       0.60374934 </v>
   <v>       0.12062659       0.21408620       0.59776778 </v>
   <v>       0.51256047       0.25097371       0.57717663 </v>
   <v>       0.83419667       0.50523140       0.59038650 </v>
   <v>       0.78401971       0.89424689       0.59513664 </v>
   <v>       0.43920387       0.81247299       0.58960380 </v>
   <v>       0.08496320       0.57746932       0.60822023 </v>
  </varray>
  <varray name="selective"  type="logical" >
   <v type="logical" >  T  T  T </v>
   <v type="logical" >  F  F  F </v>
   <v type="logical" >  T  T  T </v>
   <v type="logical" >  F  F  F </v>
   <v type="logical" >  T  T  T </v>
   <v type="logical" >  F  F  F </v>
   <v type="logical" >  T  T  T </v>
   <v type="logical" >  F  F  F </v>
   <v type="logical" >  T  T  T </v>
   <v type="logical" >  F  F  F </v>
   <v type="logical" >  T  T  T </v>
   <v type="logical" >  F  F  F </v>
   <v type="logical" >  T  T  T </v>
   <v type="logical" >  F  F  F </v>
   <v type="logical" >  T  T  T </v>
   <v type="logical" >  F  F  F </v>
   <v type="logical" >  T  T  T </v>
   <v type="logical" >  F  F  F </v>
   <v type="logical" >  T  T  T </v>
   <v type="logical" >  F  F  F </v>
   <v type="logical" >  T  T  T </v>
   <v type="logical" >  T  T  T </v>
   <v type="logical" >  F  F  F </v>
   <v type="logical" >  T  T  T </v>
   <v type="logical" >  F  F  F </v>
   <v type="logical" >  T  T  T </v>
   <v type="logical" >  T  T  T </v>
   <v type="logical" >  F  F  F </v>
   <v type="logical" >  T  T  T </v>
   <v type="logical" >  F  F  F </v>
   <v type="logical" >  T  T  T </v>
   <v type="logical" >  T  T  T </v>
   <v type="logical" >  F  F  F </v>
   <v type="logical" >  T  T  T </v>
   <v type="logical" >  F  F  F </v>
   <v type="logical" >  T  T  T </v>
   <v type="logical" >  T  T  T </v>
   <v type="logical" >  F  F  F </v>
   <v type="logical" >  T  T  T </v>
   <v type="logical" >  F  F  F </v>
   <v type="logical" >  T  T  T </v>
   <v type="logical" >  T  T  T </v>
   <v type="logical" >  F  F  F </v>
   <v type="logical" >  T  T  T </v>
   <v type="logical" >  F  F  F </v>
   <v type="logical" >  T  T  T </v>
   <v type="logical" >  T  T  T </v>
   <v type="logical" >  F  F  F </v>
   <v type="logical" >  T  T  T </v>
   <v type="logical" >  F  F  F </v>
   <v type="logical" >  T  T  T </v>
   <v type="logical" >  T  T  T </v>
   <v type="logical" >  F  F  F </v>
   <v type="logical" >  T  T  T </v>
   <v type="logical" >  F  F  F </v>
   <v type="logical" >  T  T  T </v>
   <v type="logical" >  T  T  T </v>
   <v type="logical" >  F  F  F </v>
   <v type="logical" >  T  T  T </v>
   <v type="logical" >  F  F  F </v>
   <v type="logical" >  T  T  T </v>
   <v type="logical" >  T  T  T </v>
   <v type="logical" >  F  F  F </v>
   <v type="logical" >  T  T  T </v>
   <v type="logical" >  T  T  T </v>
   <v type="logical" >  T  T  T </v>
   <v type="logical" >  T  T  T </v>
   <v type="logical" >  T  T  T </v>
   <v type="logical" >  T  T  T </v>
   <v type="logical" >  T  T  T </v>
   <v type="logical" >  T  T  T </v>
   <v type="logical" >  T  T  T </v>
   <v type="logical" >  T  T  T </v>
  </varray>
  <nose>
   <v>      -3.00000000       0.00000000       0.00010000       0.00010000 </v>
  </nose>
 </structure>
</modeling>
