unknown system                          
           1
    11.598200    0.000000    0.000000
    -5.799100   10.044336    0.000000
     0.000000    0.000000   21.048201
   Ce   O    Ir
    18    48     7
Direct configuration=     1
   0.00306000  0.99701000  0.45904000
   0.22222000  0.11111000  0.30996000
   0.32549000  0.99694000  0.46156000
   0.55556000  0.11111000  0.30996000
   0.66956000  0.00575000  0.46395000
   0.88889000  0.11111000  0.30996000
   0.99429000  0.33043000  0.46388000
   0.22222000  0.44444000  0.30996000
   0.33282000  0.33388000  0.45848000
   0.55556000  0.44444000  0.30996000
   0.67135000  0.32877000  0.45654000
   0.88889000  0.44444000  0.30996000
   0.00316000  0.67453000  0.46154000
   0.22222000  0.77778000  0.30996000
   0.33406000  0.66594000  0.45975000
   0.55556000  0.77778000  0.30996000
   0.66613000  0.66721000  0.45873000
   0.88889000  0.77778000  0.30996000
   0.00565000  0.99485000  0.58210000
   0.11111000  0.22222000  0.27247000
   0.22656000  0.11765000  0.42160000
   0.10918000  0.21885000  0.50297000
   0.00000000  0.00000000  0.34745000
   0.33556000  0.03161000  0.57938000
   0.44444000  0.22222000  0.27247000
   0.55030000  0.10727000  0.42191000
   0.45382000  0.23523000  0.50060000
   0.33333000  0.00000000  0.34745000
   0.64283000  0.98322000  0.57804000
   0.77778000  0.22222000  0.27247000
   0.89158000  0.10857000  0.42339000
   0.77761000  0.22235000  0.49035000
   0.66667000  0.00000000  0.34745000
   0.01630000  0.35688000  0.57800000
   0.11111000  0.55556000  0.27247000
   0.21763000  0.43414000  0.42280000
   0.10806000  0.56205000  0.50220000
   0.00000000  0.33333000  0.34745000
   0.31656000  0.34768000  0.59359000
   0.44444000  0.55556000  0.27247000
   0.55458000  0.44564000  0.42043000
   0.44686000  0.55242000  0.50293000
   0.33333000  0.33333000  0.34745000
   0.65920000  0.34118000  0.59127000
   0.77778000  0.55556000  0.27247000
   0.89277000  0.44965000  0.42186000
   0.76508000  0.54608000  0.50064000
   0.66667000  0.33333000  0.34745000
   0.96990000  0.66367000  0.57908000
   0.11111000  0.88889000  0.27247000
   0.22044000  0.77962000  0.42116000
   0.11038000  0.88973000  0.48834000
   0.00000000  0.66667000  0.34745000
   0.30517000  0.69453000  0.59704000
   0.44444000  0.88889000  0.27247000
   0.56586000  0.78233000  0.42294000
   0.43772000  0.89209000  0.50232000
   0.33333000  0.66667000  0.34745000
   0.65422000  0.68098000  0.59145000
   0.77778000  0.88889000  0.27247000
   0.88226000  0.77347000  0.42165000
   0.78140000  0.89145000  0.50298000
   0.66667000  0.66667000  0.34745000
   0.42925000  0.58667000  0.65283000
   0.54415000  0.47272000  0.67255000
   0.57066000  0.45780000  0.52863000
   0.48481000  0.51415000  0.58780000
   0.15960000  0.17340000  0.58377000
   0.49288000  0.18566000  0.58271000
   0.81547000  0.50671000  0.58253000
   0.82744000  0.84064000  0.58339000
   0.47311000  0.84632000  0.58615000
   0.15355000  0.52643000  0.58607000
Direct configuration=     2
   0.00327265  0.99696690  0.45850956
   0.22222000  0.11111000  0.30996000
   0.32549936  0.99718460  0.46118182
   0.55556000  0.11111000  0.30996000
   0.66937687  0.00566334  0.46298189
   0.88889000  0.11111000  0.30996000
   0.99433537  0.33055329  0.46312956
   0.22222000  0.44444000  0.30996000
   0.33600248  0.33655340  0.45864923
   0.55556000  0.44444000  0.30996000
   0.66978747  0.32987404  0.45685270
   0.88889000  0.44444000  0.30996000
   0.00296353  0.67459095  0.46102254
   0.22222000  0.77778000  0.30996000
   0.33476872  0.66533317  0.45939682
   0.55556000  0.77778000  0.30996000
   0.66284641  0.66291593  0.45923975
   0.88889000  0.77778000  0.30996000
   0.00590696  0.99418508  0.58235987
   0.11111000  0.22222000  0.27247000
   0.22630083  0.11739748  0.42175440
   0.10903190  0.21837867  0.50308654
   0.00000000  0.00000000  0.34745000
   0.33596535  0.03196633  0.57952536
   0.44444000  0.22222000  0.27247000
   0.55036584  0.10703935  0.42206317
   0.45094895  0.22922216  0.50042381
   0.33333000  0.00000000  0.34745000
   0.64093748  0.98126596  0.57853183
   0.77778000  0.22222000  0.27247000
   0.89154451  0.10858788  0.42359551
   0.77785173  0.22205740  0.49050130
   0.66667000  0.00000000  0.34745000
   0.01750042  0.35786741  0.57828248
   0.11111000  0.55556000  0.27247000
   0.21684877  0.43380210  0.42287295
   0.10777832  0.56155368  0.50248275
   0.00000000  0.33333000  0.34745000
   0.31174284  0.34295758  0.59199195
   0.44444000  0.55556000  0.27247000
   0.55410953  0.44480180  0.41645412
   0.43933386  0.55786629  0.49992967
   0.33333000  0.33333000  0.34745000
   0.66079753  0.34043425  0.59167106
   0.77778000  0.55556000  0.27247000
   0.89292464  0.44953275  0.42201538
   0.77818959  0.55183011  0.49983416
   0.66667000  0.33333000  0.34745000
   0.96919486  0.66295913  0.57944424
   0.11111000  0.88889000  0.27247000
   0.22022117  0.77976638  0.42130813
   0.11029269  0.88998573  0.48849127
   0.00000000  0.66667000  0.34745000
   0.30640971  0.69680679  0.59612251
   0.44444000  0.88889000  0.27247000
   0.56607093  0.78329585  0.42299022
   0.43827661  0.89256945  0.50250187
   0.33333000  0.66667000  0.34745000
   0.66213709  0.69073228  0.59003599
   0.77778000  0.88889000  0.27247000
   0.88290471  0.77391399  0.42177723
   0.78206152  0.89182993  0.50312731
   0.66667000  0.66667000  0.34745000
   0.42736259  0.58703402  0.65144742
   0.54159190  0.47249775  0.66860923
   0.56219232  0.45464028  0.53303879
   0.49310931  0.50989733  0.59762370
   0.16115887  0.17630255  0.58380352
   0.49346479  0.18627221  0.58265536
   0.81490120  0.50622219  0.58242075
   0.82410171  0.83831044  0.58354586
   0.47211182  0.84450429  0.58690816
   0.15356834  0.52649660  0.58661126
Direct configuration=     3
   0.00326185  0.99696909  0.45853652
   0.22222000  0.11111000  0.30996000
   0.32549888  0.99717217  0.46120104
   0.55556000  0.11111000  0.30996000
   0.66938618  0.00566774  0.46303109
   0.88889000  0.11111000  0.30996000
   0.99433307  0.33054703  0.46316770
   0.22222000  0.44444000  0.30996000
   0.33584074  0.33641754  0.45864063
   0.55556000  0.44444000  0.30996000
   0.66986688  0.32981793  0.45683681
   0.88889000  0.44444000  0.30996000
   0.00297352  0.67458785  0.46104884
   0.22222000  0.77778000  0.30996000
   0.33473270  0.66536401  0.45941476
   0.55556000  0.77778000  0.30996000
   0.66301329  0.66313416  0.45921385
   0.88889000  0.77778000  0.30996000
   0.00589390  0.99421887  0.58234667
   0.11111000  0.22222000  0.27247000
   0.22631400  0.11741031  0.42174655
   0.10903943  0.21840262  0.50308062
   0.00000000  0.00000000  0.34745000
   0.33594475  0.03194823  0.57951797
   0.44444000  0.22222000  0.27247000
   0.55036250  0.10705107  0.42205539
   0.45109486  0.22952748  0.50043276
   0.33333000  0.00000000  0.34745000
   0.64103366  0.98136526  0.57850683
   0.77778000  0.22222000  0.27247000
   0.89154632  0.10858697  0.42358507
   0.77783945  0.22207227  0.49049361
   0.66667000  0.00000000  0.34745000
   0.01743941  0.35781723  0.57826812
   0.11111000  0.55556000  0.27247000
   0.21688847  0.43381927  0.42286925
   0.10779263  0.56157890  0.50246838
   0.00000000  0.33333000  0.34745000
   0.31198765  0.34319758  0.59207316
   0.44444000  0.55556000  0.27247000
   0.55413344  0.44484440  0.41665618
   0.43971633  0.55758951  0.50008214
   0.33333000  0.33333000  0.34745000
   0.66071634  0.34047215  0.59165068
   0.77778000  0.55556000  0.27247000
   0.89291678  0.44953871  0.42200748
   0.77752337  0.55153789  0.49987511
   0.66667000  0.33333000  0.34745000
   0.96923070  0.66299526  0.57942573
   0.11111000  0.88889000  0.27247000
   0.22023229  0.77975894  0.42130061
   0.11029712  0.88997273  0.48848358
   0.00000000  0.66667000  0.34745000
   0.30634671  0.69669108  0.59616914
   0.44444000  0.88889000  0.27247000
   0.56606021  0.78324676  0.42298767
   0.43824832  0.89254508  0.50249263
   0.33333000  0.66667000  0.34745000
   0.66173475  0.69023667  0.59010785
   0.77778000  0.88889000  0.27247000
   0.88287195  0.77389143  0.42177077
   0.78202791  0.89181062  0.50311983
   0.66667000  0.66667000  0.34745000
   0.42745851  0.58701552  0.65151768
   0.54172190  0.47250904  0.66880950
   0.56262265  0.45480086  0.53281474
   0.49268754  0.51011345  0.59712446
   0.16107965  0.17615504  0.58380182
   0.49343507  0.18624110  0.58265814
   0.81493011  0.50624698  0.58242630
   0.82427136  0.83842883  0.58353794
   0.47216255  0.84459657  0.58686963
   0.15356741  0.52649321  0.58658375
Direct configuration=     4
   0.00353869  0.99679937  0.45819715
   0.22222000  0.11111000  0.30996000
   0.32496330  0.99663637  0.46069357
   0.55556000  0.11111000  0.30996000
   0.66920403  0.00545179  0.46167310
   0.88889000  0.11111000  0.30996000
   0.99463954  0.33082728  0.46204767
   0.22222000  0.44444000  0.30996000
   0.33936587  0.34152554  0.45927668
   0.55556000  0.44444000  0.30996000
   0.66926003  0.33069535  0.45685658
   0.88889000  0.44444000  0.30996000
   0.00409881  0.67520093  0.46020834
   0.22222000  0.77778000  0.30996000
   0.33484299  0.66509965  0.45877227
   0.55556000  0.77778000  0.30996000
   0.65787899  0.65870620  0.45984538
   0.88889000  0.77778000  0.30996000
   0.00667381  0.99411886  0.58311644
   0.11111000  0.22222000  0.27247000
   0.22630095  0.11758018  0.42187715
   0.10901291  0.21831078  0.50276876
   0.00000000  0.00000000  0.34745000
   0.33701422  0.03298751  0.57994135
   0.44444000  0.22222000  0.27247000
   0.55082247  0.10724101  0.42215567
   0.44761877  0.22235138  0.49924897
   0.33333000  0.00000000  0.34745000
   0.63787712  0.97758247  0.57961206
   0.77778000  0.22222000  0.27247000
   0.89138813  0.10862133  0.42365230
   0.77759263  0.22200196  0.49060253
   0.66667000  0.00000000  0.34745000
   0.01947091  0.35900103  0.57895478
   0.11111000  0.55556000  0.27247000
   0.21510211  0.43248614  0.42265913
   0.10713866  0.56054025  0.50287202
   0.00000000  0.33333000  0.34745000
   0.31139829  0.34406447  0.59113991
   0.44444000  0.55556000  0.27247000
   0.55442974  0.44413044  0.41418318
   0.43608969  0.56035622  0.49926833
   0.33333000  0.33333000  0.34745000
   0.66231223  0.33966007  0.59175108
   0.77778000  0.55556000  0.27247000
   0.89269981  0.44880446  0.42200749
   0.78815009  0.55641228  0.49781083
   0.66667000  0.33333000  0.34745000
   0.96792577  0.66163186  0.58033643
   0.11111000  0.88889000  0.27247000
   0.21988378  0.78039301  0.42117908
   0.11023224  0.89036043  0.48874153
   0.00000000  0.66667000  0.34745000
   0.30463238  0.69624153  0.59505723
   0.44444000  0.88889000  0.27247000
   0.56740466  0.78498172  0.42289745
   0.43935841  0.89310547  0.50315276
   0.33333000  0.66667000  0.34745000
   0.65860757  0.69032000  0.58942846
   0.77778000  0.88889000  0.27247000
   0.88266544  0.77398921  0.42188855
   0.78226227  0.89171568  0.50298232
   0.66667000  0.66667000  0.34745000
   0.42049413  0.59243983  0.64714864
   0.54729366  0.46468429  0.66840479
   0.55478964  0.45454056  0.53676625
   0.49600444  0.50967835  0.60431460
   0.15620053  0.17110912  0.58394558
   0.49339213  0.18445766  0.58315672
   0.81671760  0.50623206  0.58326877
   0.83360871  0.84770059  0.58341362
   0.47278713  0.84503603  0.58714028
   0.15470363  0.52904820  0.58716276
Direct configuration=     5
   0.00349083  0.99682871  0.45825582
   0.22222000  0.11111000  0.30996000
   0.32505590  0.99672901  0.46078131
   0.55556000  0.11111000  0.30996000
   0.66923553  0.00548913  0.46190789
   0.88889000  0.11111000  0.30996000
   0.99458655  0.33077882  0.46224132
   0.22222000  0.44444000  0.30996000
   0.33875639  0.34064238  0.45916671
   0.55556000  0.44444000  0.30996000
   0.66936495  0.33054365  0.45685316
   0.88889000  0.44444000  0.30996000
   0.00390426  0.67509493  0.46035366
   0.22222000  0.77778000  0.30996000
   0.33482392  0.66514535  0.45888335
   0.55556000  0.77778000  0.30996000
   0.65876669  0.65947178  0.45973619
   0.88889000  0.77778000  0.30996000
   0.00653897  0.99413616  0.58298335
   0.11111000  0.22222000  0.27247000
   0.22630321  0.11755081  0.42185457
   0.10901749  0.21832666  0.50282268
   0.00000000  0.00000000  0.34745000
   0.33682931  0.03280782  0.57986815
   0.44444000  0.22222000  0.27247000
   0.55074294  0.10720817  0.42213833
   0.44821978  0.22359210  0.49945365
   0.33333000  0.00000000  0.34745000
   0.63842288  0.97823650  0.57942097
   0.77778000  0.22222000  0.27247000
   0.89141548  0.10861539  0.42364068
   0.77763531  0.22201412  0.49058370
   0.66667000  0.00000000  0.34745000
   0.01911967  0.35879635  0.57883606
   0.11111000  0.55556000  0.27247000
   0.21541097  0.43271664  0.42269546
   0.10725173  0.56071983  0.50280223
   0.00000000  0.33333000  0.34745000
   0.31150019  0.34391459  0.59130127
   0.44444000  0.55556000  0.27247000
   0.55437851  0.44425388  0.41461075
   0.43671672  0.55987787  0.49940903
   0.33333000  0.33333000  0.34745000
   0.66203631  0.33980047  0.59173372
   0.77778000  0.55556000  0.27247000
   0.89273732  0.44893141  0.42200749
   0.78631277  0.55556951  0.49816774
   0.66667000  0.33333000  0.34745000
   0.96815138  0.66186758  0.58017898
   0.11111000  0.88889000  0.27247000
   0.21994404  0.78028338  0.42120009
   0.11024346  0.89029340  0.48869693
   0.00000000  0.66667000  0.34745000
   0.30492878  0.69631926  0.59524947
   0.44444000  0.88889000  0.27247000
   0.56717221  0.78468176  0.42291305
   0.43916648  0.89300858  0.50303862
   0.33333000  0.66667000  0.34745000
   0.65914825  0.69030559  0.58954592
   0.77778000  0.88889000  0.27247000
   0.88270114  0.77397230  0.42186819
   0.78222175  0.89173210  0.50300610
   0.66667000  0.66667000  0.34745000
   0.42169824  0.59150199  0.64790403
   0.54633032  0.46603716  0.66847476
   0.55614394  0.45458557  0.53608305
   0.49543096  0.50975358  0.60307145
   0.15704411  0.17198154  0.58392072
   0.49339955  0.18476601  0.58307052
   0.81640855  0.50623463  0.58312311
   0.83199432  0.84609754  0.58343512
   0.47267914  0.84496005  0.58709349
   0.15450718  0.52860645  0.58706265
Direct configuration=     6
   0.00370203  0.99660996  0.45766088
   0.22222000  0.11111000  0.30996000
   0.32456595  0.99618785  0.46038206
   0.55556000  0.11111000  0.30996000
   0.66929914  0.00547708  0.46091939
   0.88889000  0.11111000  0.30996000
   0.99466111  0.33092331  0.46158071
   0.22222000  0.44444000  0.30996000
   0.34065341  0.34425254  0.46020095
   0.55556000  0.44444000  0.30996000
   0.66972308  0.33066174  0.45684461
   0.88889000  0.44444000  0.30996000
   0.00549654  0.67592755  0.45957875
   0.22222000  0.77778000  0.30996000
   0.33417864  0.66568704  0.45836843
   0.55556000  0.77778000  0.30996000
   0.65544614  0.65740214  0.46067914
   0.88889000  0.77778000  0.30996000
   0.00876562  0.99481582  0.58415585
   0.11111000  0.22222000  0.27247000
   0.22645264  0.11801483  0.42188348
   0.10920692  0.21836782  0.50255248
   0.00000000  0.00000000  0.34745000
   0.33643584  0.03238669  0.58045880
   0.44444000  0.22222000  0.27247000
   0.55133896  0.10753580  0.42204581
   0.44627201  0.21897669  0.49847368
   0.33333000  0.00000000  0.34745000
   0.63844987  0.97695206  0.58052519
   0.77778000  0.22222000  0.27247000
   0.89122929  0.10865823  0.42350498
   0.77716020  0.22206762  0.49057525
   0.66667000  0.00000000  0.34745000
   0.02157195  0.36042815  0.57960783
   0.11111000  0.55556000  0.27247000
   0.21385525  0.43147653  0.42237206
   0.10660872  0.55992309  0.50297816
   0.00000000  0.33333000  0.34745000
   0.31081244  0.34419363  0.59061788
   0.44444000  0.55556000  0.27247000
   0.55496600  0.44385877  0.41436116
   0.43615454  0.56043011  0.49923094
   0.33333000  0.33333000  0.34745000
   0.66325778  0.33901864  0.59163370
   0.77778000  0.55556000  0.27247000
   0.89244711  0.44797045  0.42175961
   0.79075409  0.55727403  0.49693912
   0.66667000  0.33333000  0.34745000
   0.96844163  0.66204070  0.58132466
   0.11111000  0.88889000  0.27247000
   0.21980051  0.78094093  0.42088272
   0.11021653  0.89063605  0.48901201
   0.00000000  0.66667000  0.34745000
   0.30399727  0.69729259  0.59436753
   0.44444000  0.88889000  0.27247000
   0.56849804  0.78604853  0.42273937
   0.43998299  0.89356267  0.50344354
   0.33333000  0.66667000  0.34745000
   0.65822260  0.69167248  0.58874628
   0.77778000  0.88889000  0.27247000
   0.88205979  0.77389311  0.42186051
   0.78204155  0.89143290  0.50268613
   0.66667000  0.66667000  0.34745000
   0.41695305  0.59507405  0.64391709
   0.55456557  0.45637333  0.67330311
   0.55138522  0.45472426  0.53780041
   0.49199592  0.51465008  0.60397493
   0.15472563  0.16991631  0.58421719
   0.49473683  0.18440347  0.58324679
   0.81703035  0.50515991  0.58341172
   0.83509708  0.84962108  0.58382226
   0.47025037  0.84283575  0.58729768
   0.15430340  0.52942621  0.58727426
Direct configuration=     7
   0.00359773  0.99671799  0.45795469
   0.22222000  0.11111000  0.30996000
   0.32480791  0.99645510  0.46057923
   0.55556000  0.11111000  0.30996000
   0.66926773  0.00548303  0.46140756
   0.88889000  0.11111000  0.30996000
   0.99462429  0.33085195  0.46190695
   0.22222000  0.44444000  0.30996000
   0.33971658  0.34246968  0.45969020
   0.55556000  0.44444000  0.30996000
   0.66954622  0.33060342  0.45684883
   0.88889000  0.44444000  0.30996000
   0.00471020  0.67551636  0.45996143
   0.22222000  0.77778000  0.30996000
   0.33449731  0.66541953  0.45862272
   0.55556000  0.77778000  0.30996000
   0.65708598  0.65842422  0.46021347
   0.88889000  0.77778000  0.30996000
   0.00766600  0.99448017  0.58357682
   0.11111000  0.22222000  0.27247000
   0.22637884  0.11778568  0.42186920
   0.10911337  0.21834750  0.50268591
   0.00000000  0.00000000  0.34745000
   0.33663015  0.03259466  0.58016711
   0.44444000  0.22222000  0.27247000
   0.55104462  0.10737400  0.42209150
   0.44723390  0.22125599  0.49895763
   0.33333000  0.00000000  0.34745000
   0.63843654  0.97758638  0.57997987
   0.77778000  0.22222000  0.27247000
   0.89132124  0.10863707  0.42357199
   0.77739483  0.22204120  0.49057942
   0.66667000  0.00000000  0.34745000
   0.02036090  0.35962229  0.57922670
   0.11111000  0.55556000  0.27247000
   0.21462354  0.43208895  0.42253177
   0.10692627  0.56031656  0.50289128
   0.00000000  0.33333000  0.34745000
   0.31115208  0.34405583  0.59095537
   0.44444000  0.55556000  0.27247000
   0.55467587  0.44405389  0.41448442
   0.43643217  0.56015739  0.49931889
   0.33333000  0.33333000  0.34745000
   0.66265456  0.33940475  0.59168309
   0.77778000  0.55556000  0.27247000
   0.89259043  0.44844501  0.42188203
   0.78856076  0.55643226  0.49754587
   0.66667000  0.33333000  0.34745000
   0.96829829  0.66195521  0.58075887
   0.11111000  0.88889000  0.27247000
   0.21987139  0.78061620  0.42103945
   0.11022983  0.89046683  0.48885641
   0.00000000  0.66667000  0.34745000
   0.30445729  0.69681191  0.59480307
   0.44444000  0.88889000  0.27247000
   0.56784328  0.78537356  0.42282514
   0.43957976  0.89328904  0.50324358
   0.33333000  0.66667000  0.34745000
   0.65867973  0.69099745  0.58914118
   0.77778000  0.88889000  0.27247000
   0.88237652  0.77393222  0.42186430
   0.78213054  0.89158066  0.50284414
   0.66667000  0.66667000  0.34745000
   0.41929644  0.59331000  0.64588603
   0.55049863  0.46114577  0.67091865
   0.55373529  0.45465577  0.53695230
   0.49369230  0.51223196  0.60352875
   0.15587060  0.17093622  0.58407078
   0.49407642  0.18458251  0.58315974
   0.81672328  0.50569066  0.58326919
   0.83356479  0.84788099  0.58363107
   0.47144981  0.84388483  0.58719684
   0.15440404  0.52902138  0.58716976
Direct configuration=     8
   0.00365429  0.99652476  0.45745401
   0.22222000  0.11111000  0.30996000
   0.32476064  0.99643814  0.46050949
   0.55556000  0.11111000  0.30996000
   0.66939238  0.00562503  0.46126395
   0.88889000  0.11111000  0.30996000
   0.99438720  0.33077435  0.46184396
   0.22222000  0.44444000  0.30996000
   0.33963735  0.34281675  0.46043825
   0.55556000  0.44444000  0.30996000
   0.67017781  0.33021192  0.45686454
   0.88889000  0.44444000  0.30996000
   0.00551138  0.67597473  0.45966467
   0.22222000  0.77778000  0.30996000
   0.33370739  0.66626698  0.45843815
   0.55556000  0.77778000  0.30996000
   0.65702420  0.65890595  0.46087227
   0.88889000  0.77778000  0.30996000
   0.00942621  0.99486374  0.58449962
   0.11111000  0.22222000  0.27247000
   0.22650424  0.11817549  0.42181536
   0.10933208  0.21833679  0.50269187
   0.00000000  0.00000000  0.34745000
   0.33618025  0.03208000  0.58059360
   0.44444000  0.22222000  0.27247000
   0.55143853  0.10754830  0.42187606
   0.44727561  0.22047819  0.49869196
   0.33333000  0.00000000  0.34745000
   0.63906223  0.97730323  0.58059238
   0.77778000  0.22222000  0.27247000
   0.89124225  0.10868853  0.42336789
   0.77714146  0.22214892  0.49050179
   0.66667000  0.00000000  0.34745000
   0.02150084  0.36018113  0.57968215
   0.11111000  0.55556000  0.27247000
   0.21409451  0.43165738  0.42234399
   0.10654079  0.56008305  0.50275997
   0.00000000  0.33333000  0.34745000
   0.31030419  0.34354739  0.59071889
   0.44444000  0.55556000  0.27247000
   0.55506528  0.44407670  0.41562609
   0.43747884  0.55957776  0.49953232
   0.33333000  0.33333000  0.34745000
   0.66314153  0.33897588  0.59141154
   0.77778000  0.55556000  0.27247000
   0.89250529  0.44783276  0.42157044
   0.78733147  0.55537295  0.49757971
   0.66667000  0.33333000  0.34745000
   0.96890561  0.66243721  0.58150962
   0.11111000  0.88889000  0.27247000
   0.21995322  0.78090281  0.42074653
   0.11019569  0.89057707  0.48904307
   0.00000000  0.66667000  0.34745000
   0.30357942  0.69766245  0.59447292
   0.44444000  0.88889000  0.27247000
   0.56834245  0.78571050  0.42270355
   0.43977392  0.89360045  0.50322457
   0.33333000  0.66667000  0.34745000
   0.65974653  0.69283953  0.58863703
   0.77778000  0.88889000  0.27247000
   0.88188388  0.77383898  0.42177532
   0.78202075  0.89132027  0.50270527
   0.66667000  0.66667000  0.34745000
   0.41769242  0.59464194  0.64454956
   0.55165347  0.45921824  0.67099949
   0.55290355  0.45480336  0.53669770
   0.49371978  0.51249566  0.60535868
   0.15700794  0.17281372  0.58421573
   0.49480622  0.18475123  0.58296671
   0.81670037  0.50519639  0.58297833
   0.83077833  0.84598038  0.58400642
   0.47041542  0.84292657  0.58718829
   0.15392161  0.52896101  0.58711941
Direct configuration=     9
   0.00366941  0.99647308  0.45732009
   0.22222000  0.11111000  0.30996000
   0.32474800  0.99643361  0.46049084
   0.55556000  0.11111000  0.30996000
   0.66942572  0.00566301  0.46122554
   0.88889000  0.11111000  0.30996000
   0.99432378  0.33075360  0.46182712
   0.22222000  0.44444000  0.30996000
   0.33961616  0.34290958  0.46063833
   0.55556000  0.44444000  0.30996000
   0.67034674  0.33010720  0.45686874
   0.88889000  0.44444000  0.30996000
   0.00572567  0.67609733  0.45958530
   0.22222000  0.77778000  0.30996000
   0.33349612  0.66649364  0.45838878
   0.55556000  0.77778000  0.30996000
   0.65700768  0.65903480  0.46104848
   0.88889000  0.77778000  0.30996000
   0.00989700  0.99496633  0.58474643
   0.11111000  0.22222000  0.27247000
   0.22653778  0.11827975  0.42180096
   0.10939058  0.21833393  0.50269346
   0.00000000  0.00000000  0.34745000
   0.33605991  0.03194234  0.58070768
   0.44444000  0.22222000  0.27247000
   0.55154388  0.10759492  0.42181843
   0.44728676  0.22027016  0.49862090
   0.33333000  0.00000000  0.34745000
   0.63922958  0.97722750  0.58075621
   0.77778000  0.22222000  0.27247000
   0.89122113  0.10870230  0.42331331
   0.77707369  0.22217773  0.49048103
   0.66667000  0.00000000  0.34745000
   0.02180573  0.36033060  0.57980396
   0.11111000  0.55556000  0.27247000
   0.21395301  0.43154195  0.42229377
   0.10643769  0.56002060  0.50272485
   0.00000000  0.33333000  0.34745000
   0.31007741  0.34341140  0.59065565
   0.44444000  0.55556000  0.27247000
   0.55516943  0.44408280  0.41593145
   0.43775878  0.55942273  0.49958941
   0.33333000  0.33333000  0.34745000
   0.66327178  0.33886118  0.59133891
   0.77778000  0.55556000  0.27247000
   0.89248252  0.44766900  0.42148710
   0.78700268  0.55508962  0.49758876
   0.66667000  0.33333000  0.34745000
   0.96906804  0.66256613  0.58171042
   0.11111000  0.88889000  0.27247000
   0.21997511  0.78097947  0.42066818
   0.11018656  0.89060655  0.48909299
   0.00000000  0.66667000  0.34745000
   0.30334462  0.69788993  0.59438461
   0.44444000  0.88889000  0.27247000
   0.56847597  0.78580062  0.42267103
   0.43982586  0.89368375  0.50321949
   0.33333000  0.66667000  0.34745000
   0.66003186  0.69333223  0.58850218
   0.77778000  0.88889000  0.27247000
   0.88175211  0.77381404  0.42175153
   0.78199139  0.89125063  0.50266813
   0.66667000  0.66667000  0.34745000
   0.41726340  0.59499819  0.64419211
   0.55196235  0.45870270  0.67102111
   0.55268109  0.45484284  0.53662961
   0.49372713  0.51256619  0.60584812
   0.15731213  0.17331589  0.58425450
   0.49500142  0.18479636  0.58291508
   0.81669425  0.50506419  0.58290053
   0.83003305  0.84547204  0.58410681
   0.47013876  0.84267027  0.58718601
   0.15379258  0.52894487  0.58710594
Direct configuration=    10
   0.00363950  0.99625104  0.45696218
   0.22222000  0.11111000  0.30996000
   0.32498918  0.99693870  0.46052532
   0.55556000  0.11111000  0.30996000
   0.66945762  0.00560309  0.46126338
   0.88889000  0.11111000  0.30996000
   0.99413979  0.33058771  0.46173433
   0.22222000  0.44444000  0.30996000
   0.33987520  0.34319519  0.46150873
   0.55556000  0.44444000  0.30996000
   0.67078381  0.32974230  0.45681087
   0.88889000  0.44444000  0.30996000
   0.00577664  0.67629955  0.45940838
   0.22222000  0.77778000  0.30996000
   0.33314439  0.66700209  0.45835623
   0.55556000  0.77778000  0.30996000
   0.65706764  0.65943399  0.46180666
   0.88889000  0.77778000  0.30996000
   0.01044269  0.99460718  0.58585186
   0.11111000  0.22222000  0.27247000
   0.22658893  0.11856373  0.42173144
   0.10952706  0.21828382  0.50275552
   0.00000000  0.00000000  0.34745000
   0.33660991  0.03232114  0.58121989
   0.44444000  0.22222000  0.27247000
   0.55196588  0.10761394  0.42150035
   0.44775752  0.21992712  0.49847796
   0.33333000  0.00000000  0.34745000
   0.63865465  0.97570852  0.58150612
   0.77778000  0.22222000  0.27247000
   0.89116815  0.10879980  0.42306589
   0.77701565  0.22224515  0.49043304
   0.66667000  0.00000000  0.34745000
   0.02229871  0.35976567  0.58034619
   0.11111000  0.55556000  0.27247000
   0.21343060  0.43131267  0.42216612
   0.10585361  0.55982219  0.50243968
   0.00000000  0.33333000  0.34745000
   0.31024837  0.34428753  0.59067080
   0.44444000  0.55556000  0.27247000
   0.55562237  0.44413940  0.41723971
   0.43856018  0.55925125  0.49962798
   0.33333000  0.33333000  0.34745000
   0.66395494  0.33838905  0.59083509
   0.77778000  0.55556000  0.27247000
   0.89261116  0.44712218  0.42110539
   0.78497587  0.55349143  0.49783813
   0.66667000  0.33333000  0.34745000
   0.96887881  0.66218324  0.58256173
   0.11111000  0.88889000  0.27247000
   0.22005823  0.78123443  0.42033315
   0.11012291  0.89053781  0.48924595
   0.00000000  0.66667000  0.34745000
   0.30113570  0.69827857  0.59400080
   0.44444000  0.88889000  0.27247000
   0.56873988  0.78610470  0.42255459
   0.43998278  0.89412747  0.50310434
   0.33333000  0.66667000  0.34745000
   0.65905437  0.69351764  0.58817785
   0.77778000  0.88889000  0.27247000
   0.88146548  0.77375938  0.42164988
   0.78211660  0.89107427  0.50260341
   0.66667000  0.66667000  0.34745000
   0.41574381  0.59649520  0.64321849
   0.55225723  0.45755258  0.67082474
   0.55161385  0.45558486  0.53717856
   0.49542102  0.51117658  0.60621834
   0.15746448  0.17390169  0.58443375
   0.49444312  0.18376892  0.58260223
   0.81771059  0.50569310  0.58251861
   0.83006981  0.84597314  0.58453245
   0.47119900  0.84349262  0.58703177
   0.15412590  0.53014857  0.58707122
Direct configuration=    11
   0.00364070  0.99625996  0.45697656
   0.22222000  0.11111000  0.30996000
   0.32497949  0.99691841  0.46052394
   0.55556000  0.11111000  0.30996000
   0.66945634  0.00560549  0.46126186
   0.88889000  0.11111000  0.30996000
   0.99414718  0.33059438  0.46173806
   0.22222000  0.44444000  0.30996000
   0.33986479  0.34318372  0.46147377
   0.55556000  0.44444000  0.30996000
   0.67076625  0.32975696  0.45681319
   0.88889000  0.44444000  0.30996000
   0.00577459  0.67629142  0.45941549
   0.22222000  0.77778000  0.30996000
   0.33315852  0.66698166  0.45835754
   0.55556000  0.77778000  0.30996000
   0.65706523  0.65941796  0.46177620
   0.88889000  0.77778000  0.30996000
   0.01042076  0.99462161  0.58580746
   0.11111000  0.22222000  0.27247000
   0.22658688  0.11855232  0.42173423
   0.10952158  0.21828583  0.50275303
   0.00000000  0.00000000  0.34745000
   0.33658781  0.03230593  0.58119932
   0.44444000  0.22222000  0.27247000
   0.55194893  0.10761318  0.42151313
   0.44773861  0.21994090  0.49848370
   0.33333000  0.00000000  0.34745000
   0.63867775  0.97576954  0.58147600
   0.77778000  0.22222000  0.27247000
   0.89117028  0.10879588  0.42307583
   0.77701798  0.22224244  0.49043497
   0.66667000  0.00000000  0.34745000
   0.02227891  0.35978836  0.58032441
   0.11111000  0.55556000  0.27247000
   0.21345158  0.43132188  0.42217125
   0.10587707  0.55983016  0.50245114
   0.00000000  0.33333000  0.34745000
   0.31024150  0.34425234  0.59067019
   0.44444000  0.55556000  0.27247000
   0.55560417  0.44413713  0.41718716
   0.43852798  0.55925814  0.49962643
   0.33333000  0.33333000  0.34745000
   0.66392749  0.33840802  0.59085533
   0.77778000  0.55556000  0.27247000
   0.89260599  0.44714414  0.42112072