unknown system                          
           1
    11.598200    0.000000    0.000000
    -5.799100   10.044336    0.000000
     0.000000    0.000000   21.048201
   Ce   O    Ir
    18    48     7
Direct configuration=     1
   0.00306000  0.99701000  0.45904000
   0.22222000  0.11111000  0.30996000
   0.32549000  0.99694000  0.46156000
   0.55556000  0.11111000  0.30996000
   0.66956000  0.00575000  0.46395000
   0.88889000  0.11111000  0.30996000
   0.99429000  0.33043000  0.46388000
   0.22222000  0.44444000  0.30996000
   0.33282000  0.33388000  0.45848000
   0.55556000  0.44444000  0.30996000
   0.67135000  0.32877000  0.45654000
   0.88889000  0.44444000  0.30996000
   0.00316000  0.67453000  0.46154000
   0.22222000  0.77778000  0.30996000
   0.33406000  0.66594000  0.45975000
   0.55556000  0.77778000  0.30996000
   0.66613000  0.66721000  0.45873000
   0.88889000  0.77778000  0.30996000
   0.00565000  0.99485000  0.58210000
   0.11111000  0.22222000  0.27247000
   0.22656000  0.11765000  0.42160000
   0.10918000  0.21885000  0.50297000
   0.00000000  0.00000000  0.34745000
   0.33556000  0.03161000  0.57938000
   0.44444000  0.22222000  0.27247000
   0.55030000  0.10727000  0.42191000
   0.45382000  0.23523000  0.50060000
   0.33333000  0.00000000  0.34745000
   0.64283000  0.98322000  0.57804000
   0.77778000  0.22222000  0.27247000
   0.89158000  0.10857000  0.42339000
   0.77761000  0.22235000  0.49035000
   0.66667000  0.00000000  0.34745000
   0.01630000  0.35688000  0.57800000
   0.11111000  0.55556000  0.27247000
   0.21763000  0.43414000  0.42280000
   0.10806000  0.56205000  0.50220000
   0.00000000  0.33333000  0.34745000
   0.31656000  0.34768000  0.59359000
   0.44444000  0.55556000  0.27247000
   0.55458000  0.44564000  0.42043000
   0.44686000  0.55242000  0.50293000
   0.33333000  0.33333000  0.34745000
   0.65920000  0.34118000  0.59127000
   0.77778000  0.55556000  0.27247000
   0.89277000  0.44965000  0.42186000
   0.76508000  0.54608000  0.50064000
   0.66667000  0.33333000  0.34745000
   0.96990000  0.66367000  0.57908000
   0.11111000  0.88889000  0.27247000
   0.22044000  0.77962000  0.42116000
   0.11038000  0.88973000  0.48834000
   0.00000000  0.66667000  0.34745000
   0.30517000  0.69453000  0.59704000
   0.44444000  0.88889000  0.27247000
   0.56586000  0.78233000  0.42294000
   0.43772000  0.89209000  0.50232000
   0.33333000  0.66667000  0.34745000
   0.65422000  0.68098000  0.59145000
   0.77778000  0.88889000  0.27247000
   0.88226000  0.77347000  0.42165000
   0.78140000  0.89145000  0.50298000
   0.66667000  0.66667000  0.34745000
   0.42925000  0.58667000  0.65283000
   0.54415000  0.47272000  0.67255000
   0.57066000  0.45780000  0.52863000
   0.48481000  0.51415000  0.58780000
   0.15960000  0.17340000  0.58377000
   0.49288000  0.18566000  0.58271000
   0.81547000  0.50671000  0.58253000
   0.82744000  0.84064000  0.58339000
   0.47311000  0.84632000  0.58615000
   0.15355000  0.52643000  0.58607000
Direct configuration=     2
   0.00327265  0.99696690  0.45850956
   0.22222000  0.11111000  0.30996000
   0.32549936  0.99718460  0.46118182
   0.55556000  0.11111000  0.30996000
   0.66937687  0.00566334  0.46298189
   0.88889000  0.11111000  0.30996000
   0.99433537  0.33055329  0.46312956
   0.22222000  0.44444000  0.30996000
   0.33600248  0.33655340  0.45864923
   0.55556000  0.44444000  0.30996000
   0.66978747  0.32987404  0.45685270
   0.88889000  0.44444000  0.30996000
   0.00296353  0.67459095  0.46102254
   0.22222000  0.77778000  0.30996000
   0.33476872  0.66533317  0.45939682
   0.55556000  0.77778000  0.30996000
   0.66284641  0.66291593  0.45923975
   0.88889000  0.77778000  0.30996000
   0.00590696  0.99418508  0.58235987
   0.11111000  0.22222000  0.27247000
   0.22630083  0.11739748  0.42175440
   0.10903190  0.21837867  0.50308654
   0.00000000  0.00000000  0.34745000
   0.33596535  0.03196633  0.57952536
   0.44444000  0.22222000  0.27247000
   0.55036584  0.10703935  0.42206317
   0.45094895  0.22922216  0.50042381
   0.33333000  0.00000000  0.34745000
   0.64093748  0.98126596  0.57853183
   0.77778000  0.22222000  0.27247000
   0.89154451  0.10858788  0.42359551
   0.77785173  0.22205740  0.49050130
   0.66667000  0.00000000  0.34745000
   0.01750042  0.35786741  0.57828248
   0.11111000  0.55556000  0.27247000
   0.21684877  0.43380210  0.42287295
   0.10777832  0.56155368  0.50248275
   0.00000000  0.33333000  0.34745000
   0.31174284  0.34295758  0.59199195
   0.44444000  0.55556000  0.27247000
   0.55410953  0.44480180  0.41645412
   0.43933386  0.55786629  0.49992967
   0.33333000  0.33333000  0.34745000
   0.66079753  0.34043425  0.59167106
   0.77778000  0.55556000  0.27247000
   0.89292464  0.44953275  0.42201538
   0.77818959  0.55183011  0.49983416
   0.66667000  0.33333000  0.34745000
   0.96919486  0.66295913  0.57944424
   0.11111000  0.88889000  0.27247000
   0.22022117  0.77976638  0.42130813
   0.11029269  0.88998573  0.48849127
   0.00000000  0.66667000  0.34745000
   0.30640971  0.69680679  0.59612251
   0.44444000  0.88889000  0.27247000
   0.56607093  0.78329585  0.42299022
   0.43827661  0.89256945  0.50250187
   0.33333000  0.66667000  0.34745000
   0.66213709  0.69073228  0.59003599
   0.77778000  0.88889000  0.27247000
   0.88290471  0.77391399  0.42177723
   0.78206152  0.89182993  0.50312731
   0.66667000  0.66667000  0.34745000
   0.42736259  0.58703402  0.65144742
   0.54159190  0.47249775  0.66860923
   0.56219232  0.45464028  0.53303879
   0.49310931  0.50989733  0.59762370
   0.16115887  0.17630255  0.58380352
   0.49346479  0.18627221  0.58265536
   0.81490120  0.50622219  0.58242075
   0.82410171  0.83831044  0.58354586
   0.47211182  0.84450429  0.58690816
   0.15356834  0.52649660  0.58661126
Direct configuration=     3
   0.00326185  0.99696909  0.45853652
   0.22222000  0.11111000  0.30996000
   0.32549888  0.99717217  0.46120104
   0.55556000  0.11111000  0.30996000
   0.66938618  0.00566774  0.46303109
   0.88889000  0.11111000  0.30996000
   0.99433307  0.33054703  0.46316770
   0.22222000  0.44444000  0.30996000
   0.33584074  0.33641754  0.45864063
   0.55556000  0.44444000  0.30996000
   0.66986688  0.32981793  0.45683681
   0.88889000  0.44444000  0.30996000
   0.00297352  0.67458785  0.46104884
   0.22222000  0.77778000  0.30996000
   0.33473270  0.66536401  0.45941476
   0.55556000  0.77778000  0.30996000
   0.66301329  0.66313416  0.45921385
   0.88889000  0.77778000  0.30996000
   0.00589390  0.99421887  0.58234667
   0.11111000  0.22222000  0.27247000
   0.22631400  0.11741031  0.42174655
   0.10903943  0.21840262  0.50308062
   0.00000000  0.00000000  0.34745000
   0.33594475  0.03194823  0.57951797
   0.44444000  0.22222000  0.27247000
   0.55036250  0.10705107  0.42205539
   0.45109486  0.22952748  0.50043276
   0.33333000  0.00000000  0.34745000
   0.64103366  0.98136526  0.57850683
   0.77778000  0.22222000  0.27247000
   0.89154632  0.10858697  0.42358507
   0.77783945  0.22207227  0.49049361
   0.66667000  0.00000000  0.34745000
   0.01743941  0.35781723  0.57826812
   0.11111000  0.55556000  0.27247000
   0.21688847  0.43381927  0.42286925
   0.10779263  0.56157890  0.50246838
   0.00000000  0.33333000  0.34745000
   0.31198765  0.34319758  0.59207316
   0.44444000  0.55556000  0.27247000
   0.55413344  0.44484440  0.41665618
   0.43971633  0.55758951  0.50008214
   0.33333000  0.33333000  0.34745000
   0.66071634  0.34047215  0.59165068
   0.77778000  0.55556000  0.27247000
   0.89291678  0.44953871  0.42200748
   0.77752337  0.55153789  0.49987511
   0.66667000  0.33333000  0.34745000
   0.96923070  0.66299526  0.57942573
   0.11111000  0.88889000  0.27247000
   0.22023229  0.77975894  0.42130061
   0.11029712  0.88997273  0.48848358
   0.00000000  0.66667000  0.34745000
   0.30634671  0.69669108  0.59616914
   0.44444000  0.88889000  0.27247000
   0.56606021  0.78324676  0.42298767
   0.43824832  0.89254508  0.50249263
   0.33333000  0.66667000  0.34745000
   0.66173475  0.69023667  0.59010785
   0.77778000  0.88889000  0.27247000
   0.88287195  0.77389143  0.42177077
   0.78202791  0.89181062  0.50311983
   0.66667000  0.66667000  0.34745000
   0.42745851  0.58701552  0.65151768
   0.54172190  0.47250904  0.66880950
   0.56262265  0.45480086  0.53281474
   0.49268754  0.51011345  0.59712446
   0.16107965  0.17615504  0.58380182
   0.49343507  0.18624110  0.58265814
   0.81493011  0.50624698  0.58242630
   0.82427136  0.83842883  0.58353794
   0.47216255  0.84459657  0.58686963
   0.15356741  0.52649321  0.58658375
Direct configuration=     4
   0.00353869  0.99679937  0.45819715
   0.22222000  0.11111000  0.30996000
   0.32496330  0.99663637  0.46069357
   0.55556000  0.11111000  0.30996000
   0.66920403  0.00545179  0.46167310
   0.88889000  0.11111000  0.30996000
   0.99463954  0.33082728  0.46204767
   0.22222000  0.44444000  0.30996000
   0.33936587  0.34152554  0.45927668
   0.55556000  0.44444000  0.30996000
   0.66926003  0.33069535  0.45685658
   0.88889000  0.44444000  0.30996000
   0.00409881  0.67520093  0.46020834
   0.22222000  0.77778000  0.30996000
   0.33484299  0.66509965  0.45877227
   0.55556000  0.77778000  0.30996000
   0.65787899  0.65870620  0.45984538
   0.88889000  0.77778000  0.30996000
   0.00667381  0.99411886  0.58311644
   0.11111000  0.22222000  0.27247000
   0.22630095  0.11758018  0.42187715
   0.10901291  0.21831078  0.50276876
   0.00000000  0.00000000  0.34745000
   0.33701422  0.03298751  0.57994135
   0.44444000  0.22222000  0.27247000
   0.55082247  0.10724101  0.42215567
   0.44761877  0.22235138  0.49924897
   0.33333000  0.00000000  0.34745000
   0.63787712  0.97758247  0.57961206
   0.77778000  0.22222000  0.27247000
   0.89138813  0.10862133  0.42365230
   0.77759263  0.22200196  0.49060253
   0.66667000  0.00000000  0.34745000
   0.01947091  0.35900103  0.57895478
   0.11111000  0.55556000  0.27247000
   0.21510211  0.43248614  0.42265913
   0.10713866  0.56054025  0.50287202
   0.00000000  0.33333000  0.34745000
   0.31139829  0.34406447  0.59113991
   0.44444000  0.55556000  0.27247000
   0.55442974  0.44413044  0.41418318
   0.43608969  0.56035622  0.49926833
   0.33333000  0.33333000  0.34745000
   0.66231223  0.33966007  0.59175108
   0.77778000  0.55556000  0.27247000
   0.89269981  0.44880446  0.42200749
   0.78815009  0.55641228  0.49781083
   0.66667000  0.33333000  0.34745000
   0.96792577  0.66163186  0.58033643
   0.11111000  0.88889000  0.27247000
   0.21988378  0.78039301  0.42117908
   0.11023224  0.89036043  0.48874153
   0.00000000  0.66667000  0.34745000
   0.30463238  0.69624153  0.59505723
   0.44444000  0.88889000  0.27247000
   0.56740466  0.78498172  0.42289745
   0.43935841  0.89310547  0.50315276
   0.33333000  0.66667000  0.34745000
   0.65860757  0.69032000  0.58942846
   0.77778000  0.88889000  0.27247000
   0.88266544  0.77398921  0.42188855
   0.78226227  0.89171568  0.50298232
   0.66667000  0.66667000  0.34745000
   0.42049413  0.59243983  0.64714864
   0.54729366  0.46468429  0.66840479
   0.55478964  0.45454056  0.53676625
   0.49600444  0.50967835  0.60431460
   0.15620053  0.17110912  0.58394558
   0.49339213  0.18445766  0.58315672
   0.81671760  0.50623206  0.58326877
   0.83360871  0.84770059  0.58341362
   0.47278713  0.84503603  0.58714028
   0.15470363  0.52904820  0.58716276
Direct configuration=     5
   0.00349083  0.99682871  0.45825582
   0.22222000  0.11111000  0.30996000
   0.32505590  0.99672901  0.46078131
   0.55556000  0.11111000  0.30996000
   0.66923553  0.00548913  0.46190789
   0.88889000  0.11111000  0.30996000
   0.99458655  0.33077882  0.46224132
   0.22222000  0.44444000  0.30996000
   0.33875639  0.34064238  0.45916671
   0.55556000  0.44444000  0.30996000
   0.66936495  0.33054365  0.45685316
   0.88889000  0.44444000  0.30996000
   0.00390426  0.67509493  0.46035366
   0.22222000  0.77778000  0.30996000
   0.33482392  0.66514535  0.45888335
   0.55556000  0.77778000  0.30996000
   0.65876669  0.65947178  0.45973619
   0.88889000  0.77778000  0.30996000
   0.00653897  0.99413616  0.58298335
   0.11111000  0.22222000  0.27247000
   0.22630321  0.11755081  0.42185457
   0.10901749  0.21832666  0.50282268
   0.00000000  0.00000000  0.34745000
   0.33682931  0.03280782  0.57986815
   0.44444000  0.22222000  0.27247000
   0.55074294  0.10720817  0.42213833
   0.44821978  0.22359210  0.49945365
   0.33333000  0.00000000  0.34745000
   0.63842288  0.97823650  0.57942097
   0.77778000  0.22222000  0.27247000
   0.89141548  0.10861539  0.42364068
   0.77763531  0.22201412  0.49058370
   0.66667000  0.00000000  0.34745000
   0.01911967  0.35879635  0.57883606
   0.11111000  0.55556000  0.27247000
   0.21541097  0.43271664  0.42269546
   0.10725173  0.56071983  0.50280223
   0.00000000  0.33333000  0.34745000
   0.31150019  0.34391459  0.59130127
   0.44444000  0.55556000  0.27247000
   0.55437851  0.44425388  0.41461075
   0.43671672  0.55987787  0.49940903
   0.33333000  0.33333000  0.34745000
   0.66203631  0.33980047  0.59173372
   0.77778000  0.55556000  0.27247000
   0.89273732  0.44893141  0.42200749
   0.78631277  0.55556951  0.49816774
   0.66667000  0.33333000  0.34745000
   0.96815138  0.66186758  0.58017898
   0.11111000  0.88889000  0.27247000
   0.21994404  0.78028338  0.42120009
   0.11024346  0.89029340  0.48869693
   0.00000000  0.66667000  0.34745000
   0.30492878  0.69631926  0.59524947
   0.44444000  0.88889000  0.27247000
   0.56717221  0.78468176  0.42291305
   0.43916648  0.89300858  0.50303862
   0.33333000  0.66667000  0.34745000
   0.65914825  0.69030559  0.58954592
   0.77778000  0.88889000  0.27247000
   0.88270114  0.77397230  0.42186819
   0.78222175  0.89173210  0.50300610
   0.66667000  0.66667000  0.34745000
   0.42169824  0.59150199  0.64790403
   0.54633032  0.46603716  0.66847476
   0.55614394  0.45458557  0.53608305
   0.49543096  0.50975358  0.60307145
   0.15704411  0.17198154  0.58392072
   0.49339955  0.18476601  0.58307052
   0.81640855  0.50623463  0.58312311
   0.83199432  0.84609754  0.58343512
   0.47267914  0.84496005  0.58709349
   0.15450718  0.52860645  0.58706265
Direct configuration=     6
   0.00370203  0.99660996  0.45766088
   0.22222000  0.11111000  0.30996000
   0.32456595  0.99618785  0.46038206
   0.55556000  0.11111000  0.30996000
   0.66929914  0.00547708  0.46091939
   0.88889000  0.11111000  0.30996000
   0.99466111  0.33092331  0.46158071
   0.22222000  0.44444000  0.30996000
   0.34065341  0.34425254  0.46020095
   0.55556000  0.44444000  0.30996000
   0.66972308  0.33066174  0.45684461
   0.88889000  0.44444000  0.30996000
   0.00549654  0.67592755  0.45957875
   0.22222000  0.77778000  0.30996000
   0.33417864  0.66568704  0.45836843
   0.55556000  0.77778000  0.30996000
   0.65544614  0.65740214  0.46067914
   0.88889000  0.77778000  0.30996000
   0.00876562  0.99481582  0.58415585
   0.11111000  0.22222000  0.27247000
   0.22645264  0.11801483  0.42188348
   0.10920692  0.21836782  0.50255248
   0.00000000  0.00000000  0.34745000
   0.33643584  0.03238669  0.58045880
   0.44444000  0.22222000  0.27247000
   0.55133896  0.10753580  0.42204581
   0.44627201  0.21897669  0.49847368
   0.33333000  0.00000000  0.34745000
   0.63844987  0.97695206  0.58052519
   0.77778000  0.22222000  0.27247000
   0.89122929  0.10865823  0.42350498
   0.77716020  0.22206762  0.49057525
   0.66667000  0.00000000  0.34745000
   0.02157195  0.36042815  0.57960783
   0.11111000  0.55556000  0.27247000
   0.21385525  0.43147653  0.42237206
   0.10660872  0.55992309  0.50297816
   0.00000000  0.33333000  0.34745000
   0.31081244  0.34419363  0.59061788
   0.44444000  0.55556000  0.27247000
   0.55496600  0.44385877  0.41436116
   0.43615454  0.56043011  0.49923094
   0.33333000  0.33333000  0.34745000
   0.66325778  0.33901864  0.59163370
   0.77778000  0.55556000  0.27247000
   0.89244711  0.44797045  0.42175961
   0.79075409  0.55727403  0.49693912
   0.66667000  0.33333000  0.34745000
   0.96844163  0.66204070  0.58132466
   0.11111000  0.88889000  0.27247000
   0.21980051  0.78094093  0.42088272
   0.11021653  0.89063605  0.48901201
   0.00000000  0.66667000  0.34745000
   0.30399727  0.69729259  0.59436753
   0.44444000  0.88889000  0.27247000
   0.56849804  0.78604853  0.42273937
   0.43998299  0.89356267  0.50344354
   0.33333000  0.66667000  0.34745000
   0.65822260  0.69167248  0.58874628
   0.77778000  0.88889000  0.27247000
   0.88205979  0.77389311  0.42186051
   0.78204155  0.89143290  0.50268613
   0.66667000  0.66667000  0.34745000
   0.41695305  0.59507405  0.64391709
   0.55456557  0.45637333  0.67330311
   0.55138522  0.45472426  0.53780041
   0.49199592  0.51465008  0.60397493
   0.15472563  0.16991631  0.58421719
   0.49473683  0.18440347  0.58324679
   0.81703035  0.50515991  0.58341172
   0.83509708  0.84962108  0.58382226
   0.47025037  0.84283575  0.58729768
   0.15430340  0.52942621  0.58727426
