    4    4  100    1
  0.3551245E+02  0.2863782E-09  0.2863782E-09  0.2000000E-08  0.5000000E-15
  1.000000000000000E-004
  CAR 
 unknown system                          
     13     42     32
