Automatically generated mesh
      42
Reciprocal lattice
    0.04166666666666    0.04166666666666    0.00000000000000             6
    0.12500000000000    0.04166666666666    0.00000000000000            12
    0.20833333333334    0.04166666666666    0.00000000000000            12
    0.29166666666666    0.04166666666666    0.00000000000000            12
    0.37500000000000    0.04166666666666    0.00000000000000            12
    0.45833333333334    0.04166666666666    0.00000000000000            12
   -0.45833333333334    0.04166666666666    0.00000000000000            12
   -0.37500000000000    0.04166666666666    0.00000000000000            12
   -0.29166666666666    0.04166666666666    0.00000000000000            12
   -0.20833333333334    0.04166666666666    0.00000000000000            12
   -0.12500000000000    0.04166666666666    0.00000000000000            12
   -0.04166666666666    0.04166666666666    0.00000000000000             6
    0.12500000000000    0.12500000000000    0.00000000000000             6
    0.20833333333334    0.12500000000000    0.00000000000000            12
    0.29166666666666    0.12500000000000    0.00000000000000            12
    0.37500000000000    0.12500000000000    0.00000000000000            12
    0.45833333333334    0.12500000000000    0.00000000000000            12
   -0.45833333333334    0.12500000000000    0.00000000000000            12
   -0.37500000000000    0.12500000000000    0.00000000000000            12
   -0.29166666666666    0.12500000000000    0.00000000000000            12
   -0.20833333333334    0.12500000000000    0.00000000000000            12
   -0.12500000000000    0.12500000000000    0.00000000000000             6
    0.20833333333334    0.20833333333334    0.00000000000000             6
    0.29166666666666    0.20833333333334    0.00000000000000            12
    0.37500000000000    0.20833333333334    0.00000000000000            12
    0.45833333333334    0.20833333333334    0.00000000000000            12
   -0.45833333333334    0.20833333333334    0.00000000000000            12
   -0.37500000000000    0.20833333333334    0.00000000000000            12
   -0.29166666666666    0.20833333333334    0.00000000000000            12
   -0.20833333333334    0.20833333333334    0.00000000000000             6
    0.29166666666666    0.29166666666666    0.00000000000000             6
    0.37500000000000    0.29166666666666    0.00000000000000            12
    0.45833333333334    0.29166666666666    0.00000000000000            12
   -0.45833333333334    0.29166666666666    0.00000000000000            12
   -0.37500000000000    0.29166666666666    0.00000000000000            12
   -0.29166666666666    0.29166666666666    0.00000000000000             6
    0.37500000000000    0.37500000000000    0.00000000000000             6
    0.45833333333334    0.37500000000000    0.00000000000000            12
   -0.45833333333334    0.37500000000000    0.00000000000000            12
   -0.37500000000000    0.37500000000000    0.00000000000000             6
    0.45833333333334    0.45833333333334    0.00000000000000             6
   -0.45833333333334    0.45833333333334    0.00000000000000             6
