 vasp.6.2.1 16May21 (build Feb 21 2024 21:23:56) complex                        
  
 executed on             LinuxIFC date 2025.04.07  18:48:04
 running on   32 total cores
 distrk:  each k-point on   32 cores,    1 groups
 distr:  one band on NCORE=   1 cores,   32 groups


--------------------------------------------------------------------------------------------------------


 INCAR:
   ISTART = 1            (Read existing wavefunction, if there)
   ISPIN = 1            (Non-Spin polarised DFT)
   LREAL = .FALSE.       (Projection operators: automatic)
   LWAVE = .TRUE.        (Write WAVECAR or not)
   LCHARG = .TRUE.        (Write CHGCAR or not)
   ADDGRID = .TRUE.        (Increase grid, helps GGA convergence)
   LASPH = .TRUE.        (Give more accurate total energies and band structure calculations)
   PREC = Accurate      (Accurate strictly avoids any aliasing or wrap around errors)
   ISMEAR = 0            (Gaussian smearing, metals:1)
   SIGMA = 0.05         (Smearing value in eV, metals:0.2)
   NELM = 90           (Max electronic SCF steps)
   NELMIN = 6            (Min electronic SCF steps)
   EDIFF = 1E-08        (SCF energy convergence, in eV)
   NSW = 100          (Max ionic steps)
   IBRION = 2            (Algorithm: 0-MD, 1-Quasi-New, 2-CG)
   ISIF = 2            (Stress/relaxation: 2-Ions, 3-Shape/Ions/V, 4-Shape/Ions)
   EDIFFG = -2E-02        (Ionic convergence, eV/AA)
   LDIPOL = T
   IDIPOL = 3
   DIPOL = 0.5 0.5 0.5

 POTCAR:    PAW_PBE Al 04Jan2001                  
 POTCAR:    PAW_PBE C 08Apr2002                   
 -----------------------------------------------------------------------------
|                                                                             |
|           W    W    AA    RRRRR   N    N  II  N    N   GGGG   !!!           |
|           W    W   A  A   R    R  NN   N  II  NN   N  G    G  !!!           |
|           W    W  A    A  R    R  N N  N  II  N N  N  G       !!!           |
|           W WW W  AAAAAA  RRRRR   N  N N  II  N  N N  G  GGG   !            |
|           WW  WW  A    A  R   R   N   NN  II  N   NN  G    G                |
|           W    W  A    A  R    R  N    N  II  N    N   GGGG   !!!           |
|                                                                             |
|     For optimal performance we recommend to set                             |
|       NCORE = 2 up to number-of-cores-per-socket                            |
|     NCORE specifies how many cores store one orbital (NPAR=cpu/NCORE).      |
|     This setting can greatly improve the performance of VASP for DFT.       |
|     The default, NCORE=1 might be grossly inefficient on modern             |
|     multi-core architectures or massively parallel machines. Do your        |
|     own testing! More info at https://www.vasp.at/wiki/index.php/NCORE      |
|     Unfortunately you need to use the default for GW and RPA                |
|     calculations (for HF NCORE is supported but not extensively tested      |
|     yet).                                                                   |
|                                                                             |
 -----------------------------------------------------------------------------

 POTCAR:    PAW_PBE Al 04Jan2001                  
   VRHFIN =Al: s2p1                                                                                 
   LEXCH  = PE                                                                                      
   EATOM  =    53.5387 eV,    3.9350 Ry                                                             
                                                                                                    
   TITEL  = PAW_PBE Al 04Jan2001                                                                    
   LULTRA =        F    use ultrasoft PP ?                                                          
   IUNSCR =        1    unscreen: 0-lin 1-nonlin 2-no                                               
   RPACOR =    1.500    partial core radius                                                         
   POMASS =   26.981; ZVAL   =    3.000    mass and valenz                                          
   RCORE  =    1.900    outmost cutoff radius                                                       
   RWIGS  =    2.650; RWIGS  =    1.402    wigner-seitz radius (au A)                               
   ENMAX  =  240.300; ENMIN  =  180.225 eV                                                          
   ICORE  =        2    local potential                                                             
   LCOR   =        T    correct aug charges                                                         
   LPAW   =        T    paw PP                                                                      
   EAUG   =  291.052                                                                                
   DEXC   =    0.000                                                                                
   RMAX   =    1.939    core radius for proj-oper                                                   
   RAUG   =    1.300    factor for augmentation sphere                                              
   RDEP   =    1.966    radius for radial grids                                                     
   RDEPT  =    1.856    core radius for aug-charge                                                  
                                                                                                    
   Atomic configuration                                                                             
    6 entries                                                                                       
     n  l   j            E        occ.                                                              
     1  0  0.50     -1511.1048   2.0000                                                             
     2  0  0.50      -108.1629   2.0000                                                             
     2  1  1.50       -69.6402   6.0000                                                             
     3  0  0.50        -7.7528   2.0000                                                             
     3  1  1.50        -2.7121   1.0000                                                             
     3  2  2.50        -2.7212   0.0000                                                             
   Description                                                                                      
     l       E           TYP  RCUT    TYP  RCUT                                                     
     0     -7.7528455     23  1.900                                                                 
     0     -3.3096929     23  1.900                                                                 
     1     -2.7120682     23  1.900                                                                 
     1     13.6058260     23  1.900                                                                 
     2     -2.7211652      7  1.900                                                                 
  local pseudopotential read in
  partial core-charges read in
  partial kinetic energy density read in
  atomic valenz-charges read in
  non local Contribution for L=           0  read in
    real space projection operators read in
  non local Contribution for L=           0  read in
    real space projection operators read in
  non local Contribution for L=           1  read in
    real space projection operators read in
  non local Contribution for L=           1  read in
    real space projection operators read in
    PAW grid and wavefunctions read in
 
   number of l-projection  operators is LMAX  =           4
   number of lm-projection operators is LMMAX =           8
 
 POTCAR:    PAW_PBE C 08Apr2002                   
   VRHFIN =C: s2p2                                                                                  
   LEXCH  = PE                                                                                      
   EATOM  =   147.1560 eV,   10.8157 Ry                                                             
                                                                                                    
   TITEL  = PAW_PBE C 08Apr2002                                                                     
   LULTRA =        F    use ultrasoft PP ?                                                          
   IUNSCR =        1    unscreen: 0-lin 1-nonlin 2-no                                               
   RPACOR =    1.200    partial core radius                                                         
   POMASS =   12.011; ZVAL   =    4.000    mass and valenz                                          
   RCORE  =    1.500    outmost cutoff radius                                                       
   RWIGS  =    1.630; RWIGS  =    0.863    wigner-seitz radius (au A)                               
   ENMAX  =  400.000; ENMIN  =  300.000 eV                                                          
   ICORE  =        2    local potential                                                             
   LCOR   =        T    correct aug charges                                                         
   LPAW   =        T    paw PP                                                                      
   EAUG   =  644.873                                                                                
   DEXC   =    0.000                                                                                
   RMAX   =    1.529    core radius for proj-oper                                                   
   RAUG   =    1.300    factor for augmentation sphere                                              
   RDEP   =    1.501    radius for radial grids                                                     
   RDEPT  =    1.300    core radius for aug-charge                                                  
                                                                                                    
   Atomic configuration                                                                             
    4 entries                                                                                       
     n  l   j            E        occ.                                                              
     1  0  0.50      -273.3789   2.0000                                                             
     2  0  0.50       -13.7508   2.0000                                                             
     2  1  0.50        -5.2854   2.0000                                                             
     3  2  1.50        -5.4423   0.0000                                                             
   Description                                                                                      
     l       E           TYP  RCUT    TYP  RCUT                                                     
     0    -13.7508458     23  1.200                                                                 
     0     -8.2022199     23  1.200                                                                 
     1     -5.2854383     23  1.500                                                                 
     1     34.0145650     23  1.500                                                                 
     2     -5.4423304      7  1.500                                                                 
  local pseudopotential read in
  partial core-charges read in
  partial kinetic energy density read in
  atomic valenz-charges read in
  non local Contribution for L=           0  read in
    real space projection operators read in
  non local Contribution for L=           0  read in
    real space projection operators read in
  non local Contribution for L=           1  read in
    real space projection operators read in
  non local Contribution for L=           1  read in
    real space projection operators read in
    PAW grid and wavefunctions read in
 
   number of l-projection  operators is LMAX  =           4
   number of lm-projection operators is LMMAX =           8
 
  PAW_PBE Al 04Jan2001                  :
 energy of atom  1       EATOM=  -53.5387
 kinetic energy error for atom=    0.0005 (will be added to EATOM!!)
  PAW_PBE C 08Apr2002                   :
 energy of atom  2       EATOM= -147.1560
 kinetic energy error for atom=    0.0288 (will be added to EATOM!!)
 
 
 POSCAR: Al3C
  positions in direct lattice
  No initial velocities read in
 exchange correlation table for  LEXCH =        8
   RHO(1)=    0.500       N(1)  =     2000
   RHO(2)=  100.500       N(2)  =     4000
 


--------------------------------------------------------------------------------------------------------


 ion  position               nearest neighbor table
   1  0.833  0.500  0.338-   2 2.86   2 2.86   2 2.86
   2  0.167  0.833  0.455-   1 2.86   1 2.86   1 2.86   3 2.86   3 2.86   3 2.86
   3  0.500  0.167  0.572-   4 1.80   2 2.86   2 2.86   2 2.86
   4  0.500  0.167  0.662-   3 1.80
 
  LATTYP: Found a hexagonal cell.
 ALAT       =     2.8637824638
 C/A-ratio  =     6.9837706784
  
  Lattice vectors:
  
 A1 = (  -1.4318912319,  -2.4801083646,   0.0000000000)
 A2 = (   2.8637824638,   0.0000000000,   0.0000000000)
 A3 = (   0.0000000000,   0.0000000000,  20.0000000000)


Analysis of symmetry for initial positions (statically):
=====================================================================
 Subroutine PRICEL returns:
 Original cell was already a primitive cell.
 

 Routine SETGRP: Setting up the symmetry group for a 
 hexagonal supercell.


 Subroutine GETGRP returns: Found  6 space group operations
 (whereof  1 operations were pure point group operations)
 out of a pool of 24 trial point group operations.


The static configuration has the point symmetry C_1 .
 The point group associated with its full space group is C_3v.


Analysis of symmetry for dynamics (positions and initial velocities):
=====================================================================
 Subroutine PRICEL returns:
 Original cell was already a primitive cell.
 

 Routine SETGRP: Setting up the symmetry group for a 
 hexagonal supercell.


 Subroutine GETGRP returns: Found  6 space group operations
 (whereof  1 operations were pure point group operations)
 out of a pool of 24 trial point group operations.


The dynamic configuration has the point symmetry C_1 .
 The point group associated with its full space group is C_3v.


 Subroutine INISYM returns: Found  6 space group operations
 (whereof  1 operations are pure point group operations),
 and found     1 'primitive' translations


----------------------------------------------------------------------------------------

                                     Primitive cell                                     

  volume of cell :     142.0498

  direct lattice vectors                    reciprocal lattice vectors
     2.863782464  0.000000000  0.000000000     0.349188534 -0.201604094  0.000000000
     1.431891232  2.480108365  0.000000000     0.000000000  0.403208188  0.000000000
     0.000000000  0.000000000 20.000000000     0.000000000  0.000000000  0.050000000

  length of vectors
     2.863782464  2.863782464 20.000000000     0.403208188  0.403208188  0.050000000

  position of ions in fractional coordinates (direct lattice)
     0.833333333  0.500000000  0.338086570
     0.166666667  0.833333333  0.455000000
     0.500000000  0.166666667  0.571913430
     0.500000000  0.166666667  0.661913430

  ion indices of the primitive-cell ions
   primitive index   ion index
                 1           1
                 2           2
                 3           3
                 4           4

----------------------------------------------------------------------------------------

 
 
 KPOINTS: K-Spacing Value to Generate K-Mesh: 0.04

Automatic generation of k-mesh.
 Grid dimensions read from file:
 generate k-points for:   12   12    1

 Generating k-lattice:

  Cartesian coordinates                     Fractional coordinates (reciprocal lattice)
     0.029099044 -0.016800341  0.000000000     0.083333333  0.000000000  0.000000000
     0.000000000  0.033600682  0.000000000     0.000000000  0.083333333  0.000000000
     0.000000000  0.000000000  0.050000000     0.000000000  0.000000000  1.000000000

  Length of vectors
     0.033600682  0.033600682  0.050000000

  Shift w.r.t. Gamma in fractional coordinates (k-lattice)
     0.500000000  0.500000000  0.000000000

 
 Subroutine IBZKPT returns following result:
 ===========================================
 
 Found     42 irreducible k-points:
 
 Following reciprocal coordinates:
            Coordinates               Weight
  0.041667  0.041667  0.000000      6.000000
  0.125000  0.041667  0.000000     12.000000
  0.208333  0.041667  0.000000     12.000000
  0.291667  0.041667  0.000000     12.000000
  0.375000  0.041667  0.000000     12.000000
  0.458333  0.041667  0.000000     12.000000
 -0.458333  0.041667  0.000000     12.000000
 -0.375000  0.041667  0.000000     12.000000
 -0.291667  0.041667  0.000000     12.000000
 -0.208333  0.041667  0.000000     12.000000
 -0.125000  0.041667  0.000000     12.000000
 -0.041667  0.041667  0.000000      6.000000
  0.125000  0.125000  0.000000      6.000000
  0.208333  0.125000  0.000000     12.000000
  0.291667  0.125000  0.000000     12.000000
  0.375000  0.125000  0.000000     12.000000
  0.458333  0.125000  0.000000     12.000000
 -0.458333  0.125000  0.000000     12.000000
 -0.375000  0.125000  0.000000     12.000000
 -0.291667  0.125000  0.000000     12.000000
 -0.208333  0.125000  0.000000     12.000000
 -0.125000  0.125000  0.000000      6.000000
  0.208333  0.208333  0.000000      6.000000
  0.291667  0.208333  0.000000     12.000000
  0.375000  0.208333  0.000000     12.000000
  0.458333  0.208333  0.000000     12.000000
 -0.458333  0.208333  0.000000     12.000000
 -0.375000  0.208333  0.000000     12.000000
 -0.291667  0.208333  0.000000     12.000000
 -0.208333  0.208333  0.000000      6.000000
  0.291667  0.291667  0.000000      6.000000
  0.375000  0.291667  0.000000     12.000000
  0.458333  0.291667  0.000000     12.000000
 -0.458333  0.291667  0.000000     12.000000
 -0.375000  0.291667  0.000000     12.000000
 -0.291667  0.291667  0.000000      6.000000
  0.375000  0.375000  0.000000      6.000000
  0.458333  0.375000  0.000000     12.000000
 -0.458333  0.375000  0.000000     12.000000
 -0.375000  0.375000  0.000000      6.000000
  0.458333  0.458333  0.000000      6.000000
 -0.458333  0.458333  0.000000      6.000000
 
 Following cartesian coordinates:
            Coordinates               Weight
  0.014550  0.008400  0.000000      6.000000
  0.043649 -0.008400  0.000000     12.000000
  0.072748 -0.025201  0.000000     12.000000
  0.101847 -0.042001  0.000000     12.000000
  0.130946 -0.058801  0.000000     12.000000
  0.160045 -0.075602  0.000000     12.000000
 -0.160045  0.109202  0.000000     12.000000
 -0.130946  0.092402  0.000000     12.000000
 -0.101847  0.075602  0.000000     12.000000
 -0.072748  0.058801  0.000000     12.000000
 -0.043649  0.042001  0.000000     12.000000
 -0.014550  0.025201  0.000000      6.000000
  0.043649  0.025201  0.000000      6.000000
  0.072748  0.008400  0.000000     12.000000
  0.101847 -0.008400  0.000000     12.000000
  0.130946 -0.025201  0.000000     12.000000
  0.160045 -0.042001  0.000000     12.000000
 -0.160045  0.142803  0.000000     12.000000
 -0.130946  0.126003  0.000000     12.000000
 -0.101847  0.109202  0.000000     12.000000
 -0.072748  0.092402  0.000000     12.000000
 -0.043649  0.075602  0.000000      6.000000
  0.072748  0.042001  0.000000      6.000000
  0.101847  0.025201  0.000000     12.000000
  0.130946  0.008400  0.000000     12.000000
  0.160045 -0.008400  0.000000     12.000000
 -0.160045  0.176404  0.000000     12.000000
 -0.130946  0.159603  0.000000     12.000000
 -0.101847  0.142803  0.000000     12.000000
 -0.072748  0.126003  0.000000      6.000000
  0.101847  0.058801  0.000000      6.000000
  0.130946  0.042001  0.000000     12.000000
  0.160045  0.025201  0.000000     12.000000
 -0.160045  0.210004  0.000000     12.000000
 -0.130946  0.193204  0.000000     12.000000
 -0.101847  0.176404  0.000000      6.000000
  0.130946  0.075602  0.000000      6.000000
  0.160045  0.058801  0.000000     12.000000
 -0.160045  0.243605  0.000000     12.000000
 -0.130946  0.226805  0.000000      6.000000
  0.160045  0.092402  0.000000      6.000000
 -0.160045  0.277206  0.000000      6.000000
 


--------------------------------------------------------------------------------------------------------




 Dimension of arrays:
   k-points           NKPTS =     42   k-points in BZ     NKDIM =     42   number of bands    NBANDS=     32
   number of dos      NEDOS =    301   number of ions     NIONS =      4
   non local maximal  LDIM  =      4   non local SUM 2l+1 LMDIM =      8
   total plane-waves  NPLWV =  56000
   max r-space proj   IRMAX =      1   max aug-charges    IRDMAX= 122931
   dimension x,y,z NGX =    20 NGY =   20 NGZ =  140
   dimension x,y,z NGXF=    40 NGYF=   40 NGZF=  280
   support grid    NGXF=    80 NGYF=   80 NGZF=  560
   ions per type =               3   1
   NGX,Y,Z   is equivalent  to a cutoff of  11.61, 11.61, 11.64 a.u.
   NGXF,Y,Z  is equivalent  to a cutoff of  23.22, 23.22, 23.27 a.u.

 SYSTEM =  unknown system                          
 POSCAR =  Al3C                                    

 Startparameter for this run:
   NWRITE =      2    write-flag & timer
   PREC   = accura    normal or accurate (medium, high low for compatibility)
   ISTART =      0    job   : 0-new  1-cont  2-samecut
   ICHARG =      2    charge: 1-file 2-atom 10-const
   ISPIN  =      1    spin polarized calculation?
   LNONCOLLINEAR =      F non collinear calculations
   LSORBIT =      F    spin-orbit coupling
   INIWAV =      1    electr: 0-lowe 1-rand  2-diag
   LASPH  =      T    aspherical Exc in radial PAW
 Electronic Relaxation 1
   ENCUT  =  400.0 eV  29.40 Ry    5.42 a.u.   4.67  4.67 32.61*2*pi/ulx,y,z
   ENINI  =  400.0     initial cutoff
   ENAUG  =  644.9 eV  augmentation charge cutoff
   NELM   =     90;   NELMIN=  6; NELMDL=  0     # of ELM steps 
   EDIFF  = 0.1E-07   stopping-criterion for ELM
   LREAL  =      F    real-space projection
   NLSPLINE    = F    spline interpolate recip. space projectors
   LCOMPAT=      F    compatible to vasp.4.4
   GGA_COMPAT  = T    GGA compatible to vasp.4.4-vasp.4.6
   LMAXPAW     = -100 max onsite density
   LMAXMIX     =    2 max onsite mixed and CHGCAR
   VOSKOWN=      0    Vosko Wilk Nusair interpolation
   ROPT   =    0.00000   0.00000
 Ionic relaxation
   EDIFFG = -.2E-01   stopping-criterion for IOM
   NSW    =    100    number of steps for IOM
   NBLOCK =      1;   KBLOCK =    100    inner block; outer block 
   IBRION =      2    ionic relax: 0-MD 1-quasi-New 2-CG
   NFREE  =      1    steps in history (QN), initial steepest desc. (CG)
   ISIF   =      2    stress and relaxation
   IWAVPR =     11    prediction:  0-non 1-charg 2-wave 3-comb
   ISYM   =      2    0-nonsym 1-usesym 2-fastsym
   LCORR  =      T    Harris-Foulkes like correction to forces

   POTIM  = 0.5000    time-step for ionic-motion
   TEIN   =    0.0    initial temperature
   TEBEG  =    0.0;   TEEND  =   0.0 temperature during run
   SMASS  =  -3.00    Nose mass-parameter (am)
   estimated Nose-frequenzy (Omega)   =  0.10E-29 period in steps = 0.13E+47 mass=  -0.187E-27a.u.
   SCALEE = 1.0000    scale energy and forces
   NPACO  =    256;   APACO  = 16.0  distance and # of slots for P.C.
   PSTRESS=    0.0 pullay stress

  Mass of Ions in am
   POMASS =  26.98 12.01
  Ionic Valenz
   ZVAL   =   3.00  4.00
  Atomic Wigner-Seitz radii
   RWIGS  =  -1.00 -1.00
  virtual crystal weights 
   VCA    =   1.00  1.00
   NELECT =      13.0000    total number of electrons
   NUPDOWN=      -1.0000    fix difference up-down

 DOS related values:
   EMIN   =  10.00;   EMAX   =-10.00  energy-range for DOS
   EFERMI =   0.00
   ISMEAR =     0;   SIGMA  =   0.05  broadening in eV -4-tet -1-fermi 0-gaus

 Electronic relaxation 2 (details)
   IALGO  =     38    algorithm
   LDIAG  =      T    sub-space diagonalisation (order eigenvalues)
   LSUBROT=      F    optimize rotation matrix (better conditioning)
   TURBO    =      0    0=normal 1=particle mesh
   IRESTART =      0    0=no restart 2=restart with 2 vectors
   NREBOOT  =      0    no. of reboots
   NMIN     =      0    reboot dimension
   EREF     =   0.00    reference energy to select bands
   IMIX   =      4    mixing-type and parameters
     AMIX     =   0.40;   BMIX     =  1.00
     AMIX_MAG =   1.60;   BMIX_MAG =  1.00
     AMIN     =   0.10
     WC   =   100.;   INIMIX=   1;  MIXPRE=   1;  MAXMIX= -45

 Intra band minimization:
   WEIMIN = 0.0010     energy-eigenvalue tresh-hold
   EBREAK =  0.78E-10  absolut break condition
   DEPER  =   0.30     relativ break condition  

   TIME   =   0.40     timestep for ELM

  volume/ion in A,a.u.               =      35.51       239.65
  Fermi-wavevector in a.u.,A,eV,Ry     =   0.737750  1.394145  7.405306  0.544275
  Thomas-Fermi vector in A             =   1.831506
 
 Write flags
   LWAVE        =      T    write WAVECAR
   LDOWNSAMPLE  =      F    k-point downsampling of WAVECAR
   LCHARG       =      T    write CHGCAR
   LVTOT        =      F    write LOCPOT, total local potential
   LVHAR        =      F    write LOCPOT, Hartree potential only
   LELF         =      F    write electronic localiz. function (ELF)
   LORBIT       =      0    0 simple, 1 ext, 2 COOP (PROOUT), +10 PAW based schemes


 Dipole corrections
   LMONO  =      F    monopole corrections only (constant potential shift)
   LDIPOL =      T    correct potential (dipole corrections)
   IDIPOL =      3    1-x, 2-y, 3-z, 4-all directions 
   EPSILON=  1.0000000 bulk dielectric constant

 Exchange correlation treatment:
   GGA     =    --    GGA type
   LEXCH   =     8    internal setting for exchange type
   VOSKOWN=      0    Vosko Wilk Nusair interpolation
   LHFCALC =     F    Hartree Fock is set to
   LHFONE  =     F    Hartree Fock one center treatment
   AEXX    =    0.0000 exact exchange contribution

 Linear response parameters
   LEPSILON=     F    determine dielectric tensor
   LRPA    =     F    only Hartree local field effects (RPA)
   LNABLA  =     F    use nabla operator in PAW spheres
   LVEL    =     F    velocity operator in full k-point grid
   LINTERFAST=   F  fast interpolation
   KINTER  =     0    interpolate to denser k-point grid
   CSHIFT  =0.1000    complex shift for real part using Kramers Kronig
   OMEGAMAX=  -1.0    maximum frequency
   DEG_THRESHOLD= 0.2000000E-02 threshold for treating states as degnerate
   RTIME   =   -0.100 relaxation time in fs
  (WPLASMAI=    0.000 imaginary part of plasma frequency in eV, 0.658/RTIME)
   DFIELD  = 0.0000000 0.0000000 0.0000000 field for delta impulse in time
 
 Orbital magnetization related:
   ORBITALMAG=     F  switch on orbital magnetization
   LCHIMAG   =     F  perturbation theory with respect to B field
   DQ        =  0.001000  dq finite difference perturbation B field
   LLRAUG    =     F  two centre corrections for induced B field



--------------------------------------------------------------------------------------------------------


 conjugate gradient relaxation of ions
 charge density and potential will be updated during run
 non-spin polarized calculation
 Variant of blocked Davidson
 Davidson routine will perform the subspace rotation
 perform sub-space diagonalisation
    after iterative eigenvector-optimisation
 modified Broyden-mixing scheme, WC =      100.0
 initial mixing is a Kerker type mixing with AMIX =  0.4000 and BMIX =      1.0000
 Hartree-type preconditioning will be used
 using additional bands           25
 reciprocal scheme for non local part
 use partial core corrections
 calculate Harris-corrections to forces 
   (improved forces if not selfconsistent)
 use gradient corrections 
 use of overlap-Matrix (Vanderbilt PP)
 Gauss-broadening in eV      SIGMA  =   0.05


--------------------------------------------------------------------------------------------------------


  energy-cutoff  :      400.00
  volume of cell :      142.05
      direct lattice vectors                 reciprocal lattice vectors
     2.863782464  0.000000000  0.000000000     0.349188534 -0.201604094  0.000000000
     1.431891232  2.480108365  0.000000000     0.000000000  0.403208188  0.000000000
     0.000000000  0.000000000 20.000000000     0.000000000  0.000000000  0.050000000

  length of vectors
     2.863782464  2.863782464 20.000000000     0.403208188  0.403208188  0.050000000


 
 k-points in units of 2pi/SCALE and weight: K-Spacing Value to Generate K-Mesh: 0.04
   0.01454952  0.00840017  0.00000000       0.014
   0.04364857 -0.00840017  0.00000000       0.028
   0.07274761 -0.02520051  0.00000000       0.028
   0.10184666 -0.04200085  0.00000000       0.028
   0.13094570 -0.05880119  0.00000000       0.028
   0.16004474 -0.07560154  0.00000000       0.028
  -0.16004474  0.10920222  0.00000000       0.028
  -0.13094570  0.09240188  0.00000000       0.028
  -0.10184666  0.07560154  0.00000000       0.028
  -0.07274761  0.05880119  0.00000000       0.028
  -0.04364857  0.04200085  0.00000000       0.028
  -0.01454952  0.02520051  0.00000000       0.014
   0.04364857  0.02520051  0.00000000       0.014
   0.07274761  0.00840017  0.00000000       0.028
   0.10184666 -0.00840017  0.00000000       0.028
   0.13094570 -0.02520051  0.00000000       0.028
   0.16004474 -0.04200085  0.00000000       0.028
  -0.16004474  0.14280290  0.00000000       0.028
  -0.13094570  0.12600256  0.00000000       0.028
  -0.10184666  0.10920222  0.00000000       0.028
  -0.07274761  0.09240188  0.00000000       0.028
  -0.04364857  0.07560154  0.00000000       0.014
   0.07274761  0.04200085  0.00000000       0.014
   0.10184666  0.02520051  0.00000000       0.028
   0.13094570  0.00840017  0.00000000       0.028
   0.16004474 -0.00840017  0.00000000       0.028
  -0.16004474  0.17640358  0.00000000       0.028
  -0.13094570  0.15960324  0.00000000       0.028
  -0.10184666  0.14280290  0.00000000       0.028
  -0.07274761  0.12600256  0.00000000       0.014
   0.10184666  0.05880119  0.00000000       0.014
   0.13094570  0.04200085  0.00000000       0.028
   0.16004474  0.02520051  0.00000000       0.028
  -0.16004474  0.21000426  0.00000000       0.028
  -0.13094570  0.19320392  0.00000000       0.028
  -0.10184666  0.17640358  0.00000000       0.014
   0.13094570  0.07560154  0.00000000       0.014
   0.16004474  0.05880119  0.00000000       0.028
  -0.16004474  0.24360495  0.00000000       0.028
  -0.13094570  0.22680461  0.00000000       0.014
   0.16004474  0.09240188  0.00000000       0.014
  -0.16004474  0.27720563  0.00000000       0.014
 
 k-points in reciprocal lattice and weights: K-Spacing Value to Generate K-Mesh: 0.04
   0.04166667  0.04166667  0.00000000       0.014
   0.12500000  0.04166667  0.00000000       0.028
   0.20833333  0.04166667  0.00000000       0.028
   0.29166667  0.04166667  0.00000000       0.028
   0.37500000  0.04166667  0.00000000       0.028
   0.45833333  0.04166667  0.00000000       0.028
  -0.45833333  0.04166667  0.00000000       0.028
  -0.37500000  0.04166667  0.00000000       0.028
  -0.29166667  0.04166667  0.00000000       0.028
  -0.20833333  0.04166667  0.00000000       0.028
  -0.12500000  0.04166667  0.00000000       0.028
  -0.04166667  0.04166667  0.00000000       0.014
   0.12500000  0.12500000  0.00000000       0.014
   0.20833333  0.12500000  0.00000000       0.028
   0.29166667  0.12500000  0.00000000       0.028
   0.37500000  0.12500000  0.00000000       0.028
   0.45833333  0.12500000  0.00000000       0.028
  -0.45833333  0.12500000  0.00000000       0.028
  -0.37500000  0.12500000  0.00000000       0.028
  -0.29166667  0.12500000  0.00000000       0.028
  -0.20833333  0.12500000  0.00000000       0.028
  -0.12500000  0.12500000  0.00000000       0.014
   0.20833333  0.20833333  0.00000000       0.014
   0.29166667  0.20833333  0.00000000       0.028
   0.37500000  0.20833333  0.00000000       0.028
   0.45833333  0.20833333  0.00000000       0.028
  -0.45833333  0.20833333  0.00000000       0.028
  -0.37500000  0.20833333  0.00000000       0.028
  -0.29166667  0.20833333  0.00000000       0.028
  -0.20833333  0.20833333  0.00000000       0.014
   0.29166667  0.29166667  0.00000000       0.014
   0.37500000  0.29166667  0.00000000       0.028
   0.45833333  0.29166667  0.00000000       0.028
  -0.45833333  0.29166667  0.00000000       0.028
  -0.37500000  0.29166667  0.00000000       0.028
  -0.29166667  0.29166667  0.00000000       0.014
   0.37500000  0.37500000  0.00000000       0.014
   0.45833333  0.37500000  0.00000000       0.028
  -0.45833333  0.37500000  0.00000000       0.028
  -0.37500000  0.37500000  0.00000000       0.014
   0.45833333  0.45833333  0.00000000       0.014
  -0.45833333  0.45833333  0.00000000       0.014
 
 position of ions in fractional coordinates (direct lattice) 
   0.83333333  0.50000000  0.33808657
   0.16666667  0.83333333  0.45500000
   0.50000000  0.16666667  0.57191343
   0.50000000  0.16666667  0.66191343
 
 position of ions in cartesian coordinates  (Angst):
   3.10243100  1.24005418  6.76173141
   1.67053977  2.06675697  9.10000000
   1.67053977  0.41335139 11.43826859
   1.67053977  0.41335139 13.23826859
 


--------------------------------------------------------------------------------------------------------


 k-point   1 :   0.0417 0.0417 0.0000  plane waves:    2601
 k-point   2 :   0.1250 0.0417 0.0000  plane waves:    2597
 k-point   3 :   0.2083 0.0417 0.0000  plane waves:    2594
 k-point   4 :   0.2917 0.0417 0.0000  plane waves:    2588
 k-point   5 :   0.3750 0.0417 0.0000  plane waves:    2589
 k-point   6 :   0.4583 0.0417 0.0000  plane waves:    2586
 k-point   7 :  -0.4583 0.0417 0.0000  plane waves:    2576
 k-point   8 :  -0.3750 0.0417 0.0000  plane waves:    2587
 k-point   9 :  -0.2917 0.0417 0.0000  plane waves:    2582
 k-point  10 :  -0.2083 0.0417 0.0000  plane waves:    2594
 k-point  11 :  -0.1250 0.0417 0.0000  plane waves:    2587
 k-point  12 :  -0.0417 0.0417 0.0000  plane waves:    2595
 k-point  13 :   0.1250 0.1250 0.0000  plane waves:    2594
 k-point  14 :   0.2083 0.1250 0.0000  plane waves:    2601
 k-point  15 :   0.2917 0.1250 0.0000  plane waves:    2591
 k-point  16 :   0.3750 0.1250 0.0000  plane waves:    2587
 k-point  17 :   0.4583 0.1250 0.0000  plane waves:    2574
 k-point  18 :  -0.4583 0.1250 0.0000  plane waves:    2571
 k-point  19 :  -0.3750 0.1250 0.0000  plane waves:    2580
 k-point  20 :  -0.2917 0.1250 0.0000  plane waves:    2578
 k-point  21 :  -0.2083 0.1250 0.0000  plane waves:    2588
 k-point  22 :  -0.1250 0.1250 0.0000  plane waves:    2599
 k-point  23 :   0.2083 0.2083 0.0000  plane waves:    2584
 k-point  24 :   0.2917 0.2083 0.0000  plane waves:    2590
 k-point  25 :   0.3750 0.2083 0.0000  plane waves:    2583
 k-point  26 :   0.4583 0.2083 0.0000  plane waves:    2587
 k-point  27 :  -0.4583 0.2083 0.0000  plane waves:    2558
 k-point  28 :  -0.3750 0.2083 0.0000  plane waves:    2557
 k-point  29 :  -0.2917 0.2083 0.0000  plane waves:    2572
 k-point  30 :  -0.2083 0.2083 0.0000  plane waves:    2583
 k-point  31 :   0.2917 0.2917 0.0000  plane waves:    2578
 k-point  32 :   0.3750 0.2917 0.0000  plane waves:    2583
 k-point  33 :   0.4583 0.2917 0.0000  plane waves:    2576
 k-point  34 :  -0.4583 0.2917 0.0000  plane waves:    2558
 k-point  35 :  -0.3750 0.2917 0.0000  plane waves:    2547
 k-point  36 :  -0.2917 0.2917 0.0000  plane waves:    2567
 k-point  37 :   0.3750 0.3750 0.0000  plane waves:    2584
 k-point  38 :   0.4583 0.3750 0.0000  plane waves:    2587
 k-point  39 :  -0.4583 0.3750 0.0000  plane waves:    2570
 k-point  40 :  -0.3750 0.3750 0.0000  plane waves:    2550
 k-point  41 :   0.4583 0.4583 0.0000  plane waves:    2582
 k-point  42 :  -0.4583 0.4583 0.0000  plane waves:    2578

 maximum and minimum number of plane-waves per node :      2601     2547

 maximum number of plane-waves:      2601
 maximum index in each direction: 
   IXMAX=    5   IYMAX=    4   IZMAX=   32
   IXMIN=   -5   IYMIN=   -5   IZMIN=  -32


 serial   3D FFT for wavefunctions
 parallel 3D FFT for charge:
    minimum data exchange during FFTs selected (reduces bandwidth)


 total amount of memory used by VASP MPI-rank0    52245. kBytes
=======================================================================

   base      :      30000. kBytes
   nonl-proj :      14274. kBytes
   fftplans  :       2668. kBytes
   grid      :       3507. kBytes
   one-center:         12. kBytes
   wavefun   :       1784. kBytes
 
     INWAV:  cpu time    0.0000: real time    0.0000
 Broyden mixing: mesh for mixing (old mesh)
   NGX =  9   NGY =  9   NGZ = 65
  (NGX  = 40   NGY  = 40   NGZ  =280)
  gives a total of   5265 points

 initial charge density was supplied:
 charge density of overlapping atoms calculated
 number of electron      13.0000000 magnetization 
 keeping initial charge density in first step


--------------------------------------------------------------------------------------------------------


 Maximum index for augmentation-charges         4883 (set IRDMAX)


--------------------------------------------------------------------------------------------------------


 First call to EWALD:  gamma=   0.340
 Maximum number of real-space cells 5x 5x 1
 Maximum number of reciprocal cells 2x 2x 9

    FEWALD:  cpu time    0.0014: real time    0.0014


--------------------------------------- Iteration      1(   1)  ---------------------------------------


    POTLOK:  cpu time    0.0147: real time    0.0154
    SETDIJ:  cpu time    0.0653: real time    0.0653
     EDDAV:  cpu time    1.1746: real time    1.1752
       DOS:  cpu time    0.0006: real time    0.0006
    --------------------------------------------
      LOOP:  cpu time    1.2551: real time    1.2565

 eigenvalue-minimisations  :  2688
 total energy-change (2. order) : 0.2896080E+01  (-0.4410661E+03)
 number of electron      13.0000000 magnetization 
 augmentation part       13.0000000 magnetization 

 DIPCOR: dipole corrections for dipol
 direction  3 min pos     1,
 dipolmoment           0.000000      0.000000      0.000130 electrons x Angstroem
 Tr[quadrupol]       -15.094720

 energy correction for charged system         0.000000 eV
 dipol+quadrupol energy correction           -0.000000 eV
 added-field ion interaction         -0.000802 eV  (added to PSCEN)


 Free energy of the ion-electron system (eV)
  ---------------------------------------------------
  alpha Z        PSCENC =         1.57126820
  Ewald energy   TEWEN  =       829.94124035
  -Hartree energ DENC   =     -1107.59388041
  -exchange      EXHF   =         0.00000000
  -V(xc)+E(xc)   XCENC  =       -67.55429447
  PAW double counting   =       307.12251776     -211.82831446
  entropy T*S    EENTRO =        -0.00228175
  eigenvalues    EBANDS =       -56.50186187
  atomic energy  EATOM  =       307.74168684
  Solvation  Ediel_sol  =         0.00000000
  ---------------------------------------------------
  free energy    TOTEN  =         2.89608018 eV

  energy without entropy =        2.89836193  energy(sigma->0) =        2.89722105


--------------------------------------------------------------------------------------------------------




--------------------------------------- Iteration      1(   2)  ---------------------------------------


     EDDAV:  cpu time    1.8261: real time    1.8271
       DOS:  cpu time    0.0005: real time    0.0005
    --------------------------------------------
      LOOP:  cpu time    1.8265: real time    1.8276

 eigenvalue-minimisations  :  4096
 total energy-change (2. order) :-0.1805452E+02  (-0.1785272E+02)
 number of electron      13.0000000 magnetization 
 augmentation part       13.0000000 magnetization 

 DIPCOR: dipole corrections for dipol
 direction  3 min pos     1,
 dipolmoment           0.000000      0.000000      0.000130 electrons x Angstroem
 Tr[quadrupol]       -15.094720

 energy correction for charged system         0.000000 eV
 dipol+quadrupol energy correction           -0.000000 eV
 added-field ion interaction         -0.000802 eV  (added to PSCEN)


 Free energy of the ion-electron system (eV)
  ---------------------------------------------------
  alpha Z        PSCENC =         1.57126820
  Ewald energy   TEWEN  =       829.94124035
  -Hartree energ DENC   =     -1107.59388041
  -exchange      EXHF   =         0.00000000
  -V(xc)+E(xc)   XCENC  =       -67.55429447
  PAW double counting   =       307.12251776     -211.82831446
  entropy T*S    EENTRO =        -0.00191539
  eigenvalues    EBANDS =       -74.55675202
  atomic energy  EATOM  =       307.74168684
  Solvation  Ediel_sol  =         0.00000000
  ---------------------------------------------------
  free energy    TOTEN  =       -15.15844361 eV

  energy without entropy =      -15.15652822  energy(sigma->0) =      -15.15748591


--------------------------------------------------------------------------------------------------------




--------------------------------------- Iteration      1(   3)  ---------------------------------------


     EDDAV:  cpu time    1.6852: real time    1.6856
       DOS:  cpu time    0.0005: real time    0.0005
    --------------------------------------------
      LOOP:  cpu time    1.6856: real time    1.6861

 eigenvalue-minimisations  :  3776
 total energy-change (2. order) :-0.3144889E+00  (-0.3140503E+00)
 number of electron      13.0000000 magnetization 
 augmentation part       13.0000000 magnetization 

 DIPCOR: dipole corrections for dipol
 direction  3 min pos     1,
 dipolmoment           0.000000      0.000000      0.000130 electrons x Angstroem
 Tr[quadrupol]       -15.094720

 energy correction for charged system         0.000000 eV
 dipol+quadrupol energy correction           -0.000000 eV
 added-field ion interaction         -0.000802 eV  (added to PSCEN)


 Free energy of the ion-electron system (eV)
  ---------------------------------------------------
  alpha Z        PSCENC =         1.57126820
  Ewald energy   TEWEN  =       829.94124035
  -Hartree energ DENC   =     -1107.59388041
  -exchange      EXHF   =         0.00000000
  -V(xc)+E(xc)   XCENC  =       -67.55429447
  PAW double counting   =       307.12251776     -211.82831446
  entropy T*S    EENTRO =        -0.00192887
  eigenvalues    EBANDS =       -74.87122748
  atomic energy  EATOM  =       307.74168684
  Solvation  Ediel_sol  =         0.00000000
  ---------------------------------------------------
  free energy    TOTEN  =       -15.47293255 eV

  energy without entropy =      -15.47100368  energy(sigma->0) =      -15.47196812


--------------------------------------------------------------------------------------------------------




--------------------------------------- Iteration      1(   4)  ---------------------------------------


     EDDAV:  cpu time    2.2618: real time    2.2624
       DOS:  cpu time    0.0005: real time    0.0005
    --------------------------------------------
      LOOP:  cpu time    2.2622: real time    2.2630

 eigenvalue-minimisations  :  4928
 total energy-change (2. order) :-0.2735076E-02  (-0.2735038E-02)
 number of electron      13.0000000 magnetization 
 augmentation part       13.0000000 magnetization 

 DIPCOR: dipole corrections for dipol
 direction  3 min pos     1,
 dipolmoment           0.000000      0.000000      0.000130 electrons x Angstroem
 Tr[quadrupol]       -15.094720

 energy correction for charged system         0.000000 eV
 dipol+quadrupol energy correction           -0.000000 eV
 added-field ion interaction         -0.000802 eV  (added to PSCEN)


 Free energy of the ion-electron system (eV)
  ---------------------------------------------------
  alpha Z        PSCENC =         1.57126820
  Ewald energy   TEWEN  =       829.94124035
  -Hartree energ DENC   =     -1107.59388041
  -exchange      EXHF   =         0.00000000
  -V(xc)+E(xc)   XCENC  =       -67.55429447
  PAW double counting   =       307.12251776     -211.82831446
  entropy T*S    EENTRO =        -0.00193052
  eigenvalues    EBANDS =       -74.87396091
  atomic energy  EATOM  =       307.74168684
  Solvation  Ediel_sol  =         0.00000000
  ---------------------------------------------------
  free energy    TOTEN  =       -15.47566763 eV

  energy without entropy =      -15.47373711  energy(sigma->0) =      -15.47470237


--------------------------------------------------------------------------------------------------------




--------------------------------------- Iteration      1(   5)  ---------------------------------------


     EDDAV:  cpu time    1.6237: real time    1.6242
       DOS:  cpu time    0.0005: real time    0.0005
    CHARGE:  cpu time    0.0693: real time    0.0693
    MIXING:  cpu time    0.0024: real time    0.0024
    --------------------------------------------
      LOOP:  cpu time    1.6959: real time    1.6963

 eigenvalue-minimisations  :  3648
 total energy-change (2. order) :-0.9447717E-06  (-0.9448467E-06)
 number of electron      13.0000000 magnetization 
 augmentation part       -0.0747793 magnetization 

 DIPCOR: dipole corrections for dipol
 direction  3 min pos     1,
 dipolmoment           0.000000      0.000000      0.000130 electrons x Angstroem
 Tr[quadrupol]       -15.094720

 energy correction for charged system         0.000000 eV
 dipol+quadrupol energy correction           -0.000000 eV
 added-field ion interaction         -0.000802 eV  (added to PSCEN)


 Broyden mixing:
  rms(total) = 0.52719E+00    rms(broyden)= 0.52646E+00
  rms(prec ) = 0.81940E+00
  weight for this iteration     100.00

 Free energy of the ion-electron system (eV)
  ---------------------------------------------------
  alpha Z        PSCENC =         1.57126820
  Ewald energy   TEWEN  =       829.94124035
  -Hartree energ DENC   =     -1107.59388041
  -exchange      EXHF   =         0.00000000
  -V(xc)+E(xc)   XCENC  =       -67.55429447
  PAW double counting   =       307.12251776     -211.82831446
  entropy T*S    EENTRO =        -0.00193052
  eigenvalues    EBANDS =       -74.87396186
  atomic energy  EATOM  =       307.74168684
  Solvation  Ediel_sol  =         0.00000000
  ---------------------------------------------------
  free energy    TOTEN  =       -15.47566857 eV

  energy without entropy =      -15.47373806  energy(sigma->0) =      -15.47470332


--------------------------------------------------------------------------------------------------------




--------------------------------------- Iteration      1(   6)  ---------------------------------------


    POTLOK:  cpu time    0.0133: real time    0.0133
    SETDIJ:  cpu time    0.0648: real time    0.0648
     EDDAV:  cpu time    1.8193: real time    1.8197
       DOS:  cpu time    0.0005: real time    0.0005
    CHARGE:  cpu time    0.0675: real time    0.0675
    MIXING:  cpu time    0.0024: real time    0.0024
    --------------------------------------------
      LOOP:  cpu time    1.9677: real time    1.9682

 eigenvalue-minimisations  :  4160
 total energy-change (2. order) :-0.1301444E+02  (-0.1933307E+02)
 number of electron      13.0000000 magnetization 
 augmentation part       -0.2129471 magnetization 

 DIPCOR: dipole corrections for dipol
 direction  3 min pos     1,
 dipolmoment           0.000000      0.000000      0.438077 electrons x Angstroem
 Tr[quadrupol]       -15.274615

 energy correction for charged system         0.000000 eV
 dipol+quadrupol energy correction           -0.122235 eV
 added-field ion interaction         -2.708273 eV  (added to PSCEN)


 Broyden mixing:
  rms(total) = 0.12501E+01    rms(broyden)= 0.12497E+01
  rms(prec ) = 0.31310E+01
  weight for this iteration     100.00

 eigenvalues of (default mixing * dielectric matrix)
  average eigenvalue GAMMA=   0.2815
  0.2815

 Free energy of the ion-electron system (eV)
  ---------------------------------------------------
  alpha Z        PSCENC =        -1.25843752
  Ewald energy   TEWEN  =       829.94124035
  -Hartree energ DENC   =     -1119.03836710
  -exchange      EXHF   =         0.00000000
  -V(xc)+E(xc)   XCENC  =       -67.05117499
  PAW double counting   =       430.23360266     -335.00371652
  entropy T*S    EENTRO =        -0.00174949
  eigenvalues    EBANDS =       -74.05319382
  atomic energy  EATOM  =       307.74168684
  Solvation  Ediel_sol  =         0.00000000
  ---------------------------------------------------
  free energy    TOTEN  =       -28.49010958 eV

  energy without entropy =      -28.48836009  energy(sigma->0) =      -28.48923483


--------------------------------------------------------------------------------------------------------




--------------------------------------- Iteration      1(   7)  ---------------------------------------


    POTLOK:  cpu time    0.0133: real time    0.0133
    SETDIJ:  cpu time    0.0663: real time    0.0664
     EDDAV:  cpu time    2.1633: real time    2.1631
       DOS:  cpu time    0.0005: real time    0.0005
    CHARGE:  cpu time    0.0676: real time    0.0676
    MIXING:  cpu time    0.0024: real time    0.0024
    --------------------------------------------
      LOOP:  cpu time    2.3134: real time    2.3132

 eigenvalue-minimisations  :  4800
 total energy-change (2. order) : 0.1385089E+02  (-0.1148489E+02)
 number of electron      13.0000000 magnetization 
 augmentation part       -0.1170708 magnetization 

 DIPCOR: dipole corrections for dipol
 direction  3 min pos     1,
 dipolmoment           0.000000      0.000000      0.051897 electrons x Angstroem
 Tr[quadrupol]       -15.244171

 energy correction for charged system         0.000000 eV
 dipol+quadrupol energy correction           -0.001715 eV
 added-field ion interaction         -0.320840 eV  (added to PSCEN)


 Broyden mixing:
  rms(total) = 0.20005E+00    rms(broyden)= 0.19914E+00
  rms(prec ) = 0.27384E+00
  weight for this iteration     100.00

 eigenvalues of (default mixing * dielectric matrix)
  average eigenvalue GAMMA=   0.9703
  1.7513  0.1893

 Free energy of the ion-electron system (eV)
  ---------------------------------------------------
  alpha Z        PSCENC =         1.24951509
  Ewald energy   TEWEN  =       829.94124035
  -Hartree energ DENC   =     -1111.78918382
  -exchange      EXHF   =         0.00000000
  -V(xc)+E(xc)   XCENC  =       -67.24436069
  PAW double counting   =       437.22393466     -341.97919111
  entropy T*S    EENTRO =        -0.00425321
  eigenvalues    EBANDS =       -69.77860280
  atomic energy  EATOM  =       307.74168684
  Solvation  Ediel_sol  =         0.00000000
  ---------------------------------------------------
  free energy    TOTEN  =       -14.63921469 eV

  energy without entropy =      -14.63496148  energy(sigma->0) =      -14.63708809


--------------------------------------------------------------------------------------------------------




--------------------------------------- Iteration      1(   8)  ---------------------------------------


    POTLOK:  cpu time    0.0131: real time    0.0131
    SETDIJ:  cpu time    0.0663: real time    0.0663
     EDDAV:  cpu time    1.6775: real time    1.6773
       DOS:  cpu time    0.0005: real time    0.0005
    CHARGE:  cpu time    0.0675: real time    0.0675
    MIXING:  cpu time    0.0024: real time    0.0024
    --------------------------------------------
      LOOP:  cpu time    1.8273: real time    1.8271

 eigenvalue-minimisations  :  3808
 total energy-change (2. order) : 0.1170294E+00  (-0.1334104E+00)
 number of electron      13.0000000 magnetization 
 augmentation part       -0.1191403 magnetization 

 DIPCOR: dipole corrections for dipol
 direction  3 min pos     1,
 dipolmoment           0.000000      0.000000      0.092710 electrons x Angstroem
 Tr[quadrupol]       -15.631331

 energy correction for charged system         0.000000 eV
 dipol+quadrupol energy correction           -0.005474 eV
 added-field ion interaction         -0.573148 eV  (added to PSCEN)


 Broyden mixing:
  rms(total) = 0.98338E-01    rms(broyden)= 0.98275E-01
  rms(prec ) = 0.12015E+00
  weight for this iteration     100.00

 eigenvalues of (default mixing * dielectric matrix)
  average eigenvalue GAMMA=   1.0191
  0.1795  0.7518  2.1260

 Free energy of the ion-electron system (eV)
  ---------------------------------------------------
  alpha Z        PSCENC =         0.99344793
  Ewald energy   TEWEN  =       829.94124035
  -Hartree energ DENC   =     -1115.33234443
  -exchange      EXHF   =         0.00000000
  -V(xc)+E(xc)   XCENC  =       -67.16782694
  PAW double counting   =       533.76394433     -438.53124250
  entropy T*S    EENTRO =        -0.00293354
  eigenvalues    EBANDS =       -65.92815733
  atomic energy  EATOM  =       307.74168684
  Solvation  Ediel_sol  =         0.00000000
  ---------------------------------------------------
  free energy    TOTEN  =       -14.52218529 eV

  energy without entropy =      -14.51925175  energy(sigma->0) =      -14.52071852


--------------------------------------------------------------------------------------------------------




--------------------------------------- Iteration      1(   9)  ---------------------------------------


    POTLOK:  cpu time    0.0131: real time    0.0131
    SETDIJ:  cpu time    0.0661: real time    0.0661
     EDDAV:  cpu time    2.0691: real time    2.0688
       DOS:  cpu time    0.0005: real time    0.0005
    CHARGE:  cpu time    0.0676: real time    0.0676
    MIXING:  cpu time    0.0024: real time    0.0024
    --------------------------------------------
      LOOP:  cpu time    2.2187: real time    2.2185

 eigenvalue-minimisations  :  4608
 total energy-change (2. order) : 0.2777941E-01  (-0.1375994E-01)
 number of electron      13.0000000 magnetization 
 augmentation part       -0.1238096 magnetization 

 DIPCOR: dipole corrections for dipol
 direction  3 min pos     1,
 dipolmoment           0.000000      0.000000      0.098145 electrons x Angstroem
 Tr[quadrupol]       -15.690537

 energy correction for charged system         0.000000 eV
 dipol+quadrupol energy correction           -0.006135 eV
 added-field ion interaction         -0.606751 eV  (added to PSCEN)


 Broyden mixing:
  rms(total) = 0.29814E-01    rms(broyden)= 0.29792E-01
  rms(prec ) = 0.50111E-01
  weight for this iteration     100.00

 eigenvalues of (default mixing * dielectric matrix)
  average eigenvalue GAMMA=   1.0227
  2.0498  0.1795  1.1873  0.6742

 Free energy of the ion-electron system (eV)
  ---------------------------------------------------
  alpha Z        PSCENC =         0.95918392
  Ewald energy   TEWEN  =       829.94124035
  -Hartree energ DENC   =     -1116.39835172
  -exchange      EXHF   =         0.00000000
  -V(xc)+E(xc)   XCENC  =       -67.05580401
  PAW double counting   =       609.58721329     -514.36657208
  entropy T*S    EENTRO =        -0.00275872
  eigenvalues    EBANDS =       -64.90024374
  atomic energy  EATOM  =       307.74168684
  Solvation  Ediel_sol  =         0.00000000
  ---------------------------------------------------
  free energy    TOTEN  =       -14.49440588 eV

  energy without entropy =      -14.49164716  energy(sigma->0) =      -14.49302652


--------------------------------------------------------------------------------------------------------




--------------------------------------- Iteration      1(  10)  ---------------------------------------


    POTLOK:  cpu time    0.0130: real time    0.0130
    SETDIJ:  cpu time    0.0662: real time    0.0661
     EDDAV:  cpu time    2.2212: real time    2.2211
       DOS:  cpu time    0.0004: real time    0.0004
    CHARGE:  cpu time    0.0680: real time    0.0680
    MIXING:  cpu time    0.0025: real time    0.0025
    --------------------------------------------
      LOOP:  cpu time    2.3713: real time    2.3712

 eigenvalue-minimisations  :  4896
 total energy-change (2. order) : 0.3773692E-02  (-0.7474257E-03)
 number of electron      13.0000000 magnetization 
 augmentation part       -0.1232648 magnetization 

 DIPCOR: dipole corrections for dipol
 direction  3 min pos     1,
 dipolmoment           0.000000      0.000000      0.102368 electrons x Angstroem
 Tr[quadrupol]       -15.763488

 energy correction for charged system         0.000000 eV
 dipol+quadrupol energy correction           -0.006675 eV
 added-field ion interaction         -0.632855 eV  (added to PSCEN)


 Broyden mixing:
  rms(total) = 0.15227E-01    rms(broyden)= 0.15225E-01
  rms(prec ) = 0.25996E-01
  weight for this iteration     100.00

 eigenvalues of (default mixing * dielectric matrix)
  average eigenvalue GAMMA=   1.1721
  2.1460  1.8777  0.1795  1.0112  0.6460

 Free energy of the ion-electron system (eV)
  ---------------------------------------------------
  alpha Z        PSCENC =         0.93254064
  Ewald energy   TEWEN  =       829.94124035
  -Hartree energ DENC   =     -1116.96939904
  -exchange      EXHF   =         0.00000000
  -V(xc)+E(xc)   XCENC  =       -67.02767462
  PAW double counting   =       622.39837046     -527.17978234
  entropy T*S    EENTRO =        -0.00271076
  eigenvalues    EBANDS =       -64.32490370
  atomic energy  EATOM  =       307.74168684
  Solvation  Ediel_sol  =         0.00000000
  ---------------------------------------------------
  free energy    TOTEN  =       -14.49063218 eV

  energy without entropy =      -14.48792143  energy(sigma->0) =      -14.48927681


--------------------------------------------------------------------------------------------------------




--------------------------------------- Iteration      1(  11)  ---------------------------------------


    POTLOK:  cpu time    0.0132: real time    0.0132
    SETDIJ:  cpu time    0.0661: real time    0.0661
     EDDAV:  cpu time    1.9780: real time    1.9779
       DOS:  cpu time    0.0005: real time    0.0004
    CHARGE:  cpu time    0.0675: real time    0.0675
    MIXING:  cpu time    0.0024: real time    0.0024
    --------------------------------------------
      LOOP:  cpu time    2.1277: real time    2.1277

 eigenvalue-minimisations  :  4416
 total energy-change (2. order) : 0.1854163E-02  (-0.2153554E-03)
 number of electron      13.0000000 magnetization 
 augmentation part       -0.1238341 magnetization 

 DIPCOR: dipole corrections for dipol
 direction  3 min pos     1,
 dipolmoment           0.000000      0.000000      0.111797 electrons x Angstroem
 Tr[quadrupol]       -15.859738

 energy correction for charged system         0.000000 eV
 dipol+quadrupol energy correction           -0.007961 eV
 added-field ion interaction         -0.691151 eV  (added to PSCEN)


 Broyden mixing:
  rms(total) = 0.11272E-01    rms(broyden)= 0.11272E-01
  rms(prec ) = 0.24316E-01
  weight for this iteration     100.00

 eigenvalues of (default mixing * dielectric matrix)
  average eigenvalue GAMMA=   1.2597
  2.3074  2.3074  0.1795  1.1623  0.9562  0.6457

 Free energy of the ion-electron system (eV)
  ---------------------------------------------------
  alpha Z        PSCENC =         0.87295820
  Ewald energy   TEWEN  =       829.94124035
  -Hartree energ DENC   =     -1117.70421463
  -exchange      EXHF   =         0.00000000
  -V(xc)+E(xc)   XCENC  =       -67.00056136
  PAW double counting   =       623.22370580     -528.00715564
  entropy T*S    EENTRO =        -0.00278120
  eigenvalues    EBANDS =       -63.55365637
  atomic energy  EATOM  =       307.74168684
  Solvation  Ediel_sol  =         0.00000000
  ---------------------------------------------------
  free energy    TOTEN  =       -14.48877802 eV

  energy without entropy =      -14.48599682  energy(sigma->0) =      -14.48738742


--------------------------------------------------------------------------------------------------------




--------------------------------------- Iteration      1(  12)  ---------------------------------------


    POTLOK:  cpu time    0.0132: real time    0.0132
    SETDIJ:  cpu time    0.0667: real time    0.0667
     EDDAV:  cpu time    2.1572: real time    2.1571
       DOS:  cpu time    0.0005: real time    0.0005
    CHARGE:  cpu time    0.0678: real time    0.0678
    MIXING:  cpu time    0.0024: real time    0.0024
    --------------------------------------------
      LOOP:  cpu time    2.3078: real time    2.3076

 eigenvalue-minimisations  :  4768
 total energy-change (2. order) : 0.7957754E-03  (-0.9646553E-04)
 number of electron      13.0000000 magnetization 
 augmentation part       -0.1233972 magnetization 

 DIPCOR: dipole corrections for dipol
 direction  3 min pos     1,
 dipolmoment           0.000000      0.000000      0.118002 electrons x Angstroem
 Tr[quadrupol]       -15.926248

 energy correction for charged system         0.000000 eV
 dipol+quadrupol energy correction           -0.008869 eV
 added-field ion interaction         -0.729508 eV  (added to PSCEN)


 Broyden mixing:
  rms(total) = 0.65324E-02    rms(broyden)= 0.65303E-02
  rms(prec ) = 0.17171E-01
  weight for this iteration     100.00

 eigenvalues of (default mixing * dielectric matrix)
  average eigenvalue GAMMA=   1.3563
  2.8638  0.1795  2.1643  1.7561  0.9474  0.9474  0.6351

 Free energy of the ion-electron system (eV)
  ---------------------------------------------------
  alpha Z        PSCENC =         0.83369375
  Ewald energy   TEWEN  =       829.94124035
  -Hartree energ DENC   =     -1118.12091562
  -exchange      EXHF   =         0.00000000
  -V(xc)+E(xc)   XCENC  =       -66.99391146
  PAW double counting   =       619.67985319     -524.46352261
  entropy T*S    EENTRO =        -0.00282441
  eigenvalues    EBANDS =       -63.10328228
  atomic energy  EATOM  =       307.74168684
  Solvation  Ediel_sol  =         0.00000000
  ---------------------------------------------------
  free energy    TOTEN  =       -14.48798225 eV

  energy without entropy =      -14.48515784  energy(sigma->0) =      -14.48657004


--------------------------------------------------------------------------------------------------------




--------------------------------------- Iteration      1(  13)  ---------------------------------------


    POTLOK:  cpu time    0.0133: real time    0.0133
    SETDIJ:  cpu time    0.0662: real time    0.0662
     EDDAV:  cpu time    1.7193: real time    1.7193
       DOS:  cpu time    0.0005: real time    0.0005
    CHARGE:  cpu time    0.0677: real time    0.0677
    MIXING:  cpu time    0.0025: real time    0.0025
    --------------------------------------------
      LOOP:  cpu time    1.8695: real time    1.8694

 eigenvalue-minimisations  :  3872
 total energy-change (2. order) : 0.4029684E-03  (-0.6901489E-04)
 number of electron      13.0000000 magnetization 
 augmentation part       -0.1232226 magnetization 

 DIPCOR: dipole corrections for dipol
 direction  3 min pos     1,
 dipolmoment           0.000000      0.000000      0.125688 electrons x Angstroem
 Tr[quadrupol]       -15.999986

 energy correction for charged system         0.000000 eV
 dipol+quadrupol energy correction           -0.010062 eV
 added-field ion interaction         -0.777029 eV  (added to PSCEN)


 Broyden mixing:
  rms(total) = 0.45629E-02    rms(broyden)= 0.45621E-02
  rms(prec ) = 0.12820E-01
  weight for this iteration     100.00

 eigenvalues of (default mixing * dielectric matrix)
  average eigenvalue GAMMA=   1.5319
  3.4666  2.7269  2.0165  0.1795  0.6390  1.2479  0.9895  0.9895

 Free energy of the ion-electron system (eV)
  ---------------------------------------------------
  alpha Z        PSCENC =         0.78497973
  Ewald energy   TEWEN  =       829.94124035
  -Hartree energ DENC   =     -1118.54062013
  -exchange      EXHF   =         0.00000000
  -V(xc)+E(xc)   XCENC  =       -66.98679839
  PAW double counting   =       617.43723271     -522.22104439
  entropy T*S    EENTRO =        -0.00286722
  eigenvalues    EBANDS =       -62.64138879
  atomic energy  EATOM  =       307.74168684
  Solvation  Ediel_sol  =         0.00000000
  ---------------------------------------------------
  free energy    TOTEN  =       -14.48757928 eV

  energy without entropy =      -14.48471206  energy(sigma->0) =      -14.48614567


--------------------------------------------------------------------------------------------------------




--------------------------------------- Iteration      1(  14)  ---------------------------------------


    POTLOK:  cpu time    0.0133: real time    0.0133
    SETDIJ:  cpu time    0.0661: real time    0.0661
     EDDAV:  cpu time    1.5282: real time    1.5281
       DOS:  cpu time    0.0004: real time    0.0004
    CHARGE:  cpu time    0.0677: real time    0.0677
    MIXING:  cpu time    0.0025: real time    0.0025
    --------------------------------------------
      LOOP:  cpu time    1.6783: real time    1.6782

 eigenvalue-minimisations  :  3488
 total energy-change (2. order) : 0.5347687E-04  (-0.5931274E-04)
 number of electron      13.0000000 magnetization 
 augmentation part       -0.1230056 magnetization 

 DIPCOR: dipole corrections for dipol
 direction  3 min pos     1,
 dipolmoment           0.000000      0.000000      0.132158 electrons x Angstroem
 Tr[quadrupol]       -16.057191

 energy correction for charged system         0.000000 eV
 dipol+quadrupol energy correction           -0.011125 eV
 added-field ion interaction         -0.817024 eV  (added to PSCEN)


 Broyden mixing:
  rms(total) = 0.24450E-02    rms(broyden)= 0.24443E-02
  rms(prec ) = 0.66885E-02
  weight for this iteration     100.00

 eigenvalues of (default mixing * dielectric matrix)
  average eigenvalue GAMMA=   1.6596
  4.1400  3.0673  2.2653  0.1795  1.6467  0.6388  1.0697  0.9646  0.9646

 Free energy of the ion-electron system (eV)
  ---------------------------------------------------
  alpha Z        PSCENC =         0.74392145
  Ewald energy   TEWEN  =       829.94124035
  -Hartree energ DENC   =     -1118.75172989
  -exchange      EXHF   =         0.00000000
  -V(xc)+E(xc)   XCENC  =       -66.98503893
  PAW double counting   =       616.24877226     -521.03201629
  entropy T*S    EENTRO =        -0.00287247
  eigenvalues    EBANDS =       -62.39148912
  atomic energy  EATOM  =       307.74168684
  Solvation  Ediel_sol  =         0.00000000
  ---------------------------------------------------
  free energy    TOTEN  =       -14.48752580 eV

  energy without entropy =      -14.48465333  energy(sigma->0) =      -14.48608957


--------------------------------------------------------------------------------------------------------




--------------------------------------- Iteration      1(  15)  ---------------------------------------


    POTLOK:  cpu time    0.0135: real time    0.0135
    SETDIJ:  cpu time    0.0663: real time    0.0663
     EDDAV:  cpu time    1.4573: real time    1.4573
       DOS:  cpu time    0.0005: real time    0.0005
    CHARGE:  cpu time    0.0675: real time    0.0676
    MIXING:  cpu time    0.0025: real time    0.0025
    --------------------------------------------
      LOOP:  cpu time    1.6077: real time    1.6076

 eigenvalue-minimisations  :  3360
 total energy-change (2. order) :-0.1048937E-03  (-0.1481785E-04)
 number of electron      13.0000000 magnetization 
 augmentation part       -0.1228586 magnetization 

 DIPCOR: dipole corrections for dipol
 direction  3 min pos     1,
 dipolmoment           0.000000      0.000000      0.135792 electrons x Angstroem
 Tr[quadrupol]       -16.090651

 energy correction for charged system         0.000000 eV
 dipol+quadrupol energy correction           -0.011745 eV
 added-field ion interaction         -0.839489 eV  (added to PSCEN)


 Broyden mixing:
  rms(total) = 0.11741E-02    rms(broyden)= 0.11731E-02
  rms(prec ) = 0.33412E-02
  weight for this iteration     100.00

 eigenvalues of (default mixing * dielectric matrix)
  average eigenvalue GAMMA=   1.8746
  5.0655  3.9077  2.6066  0.1795  1.9494  1.4948  0.6389  0.9812  0.9812  0.9414

 Free energy of the ion-electron system (eV)
  ---------------------------------------------------
  alpha Z        PSCENC =         0.72083630
  Ewald energy   TEWEN  =       829.94124035
  -Hartree energ DENC   =     -1118.83919882
  -exchange      EXHF   =         0.00000000
  -V(xc)+E(xc)   XCENC  =       -66.98419085
  PAW double counting   =       617.19171782     -521.97471792
  entropy T*S    EENTRO =        -0.00287347
  eigenvalues    EBANDS =       -62.28213095
  atomic energy  EATOM  =       307.74168684
  Solvation  Ediel_sol  =         0.00000000
  ---------------------------------------------------
  free energy    TOTEN  =       -14.48763069 eV

  energy without entropy =      -14.48475722  energy(sigma->0) =      -14.48619396


--------------------------------------------------------------------------------------------------------




--------------------------------------- Iteration      1(  16)  ---------------------------------------


    POTLOK:  cpu time    0.0137: real time    0.0137
    SETDIJ:  cpu time    0.0660: real time    0.0660
     EDDAV:  cpu time    1.7662: real time    1.7662
       DOS:  cpu time    0.0005: real time    0.0005
    CHARGE:  cpu time    0.0672: real time    0.0672
    MIXING:  cpu time    0.0026: real time    0.0026
    --------------------------------------------
      LOOP:  cpu time    1.9163: real time    1.9163

 eigenvalue-minimisations  :  3968
 total energy-change (2. order) :-0.1453520E-03  (-0.1804798E-04)
 number of electron      13.0000000 magnetization 
 augmentation part       -0.1226982 magnetization 

 DIPCOR: dipole corrections for dipol
 direction  3 min pos     1,
 dipolmoment           0.000000      0.000000      0.138127 electrons x Angstroem
 Tr[quadrupol]       -16.118985

 energy correction for charged system         0.000000 eV
 dipol+quadrupol energy correction           -0.012152 eV
 added-field ion interaction         -0.853927 eV  (added to PSCEN)


 Broyden mixing:
  rms(total) = 0.67210E-03    rms(broyden)= 0.66905E-03
  rms(prec ) = 0.98066E-03
  weight for this iteration     100.00

 eigenvalues of (default mixing * dielectric matrix)
  average eigenvalue GAMMA=   1.8042
  5.5826  3.6554  2.6157  1.9970  0.1795  1.6012  0.9575  0.9729  0.9729  0.6384
  0.6728

 Free energy of the ion-electron system (eV)
  ---------------------------------------------------
  alpha Z        PSCENC =         0.70599103
  Ewald energy   TEWEN  =       829.94124035
  -Hartree energ DENC   =     -1118.88182536
  -exchange      EXHF   =         0.00000000
  -V(xc)+E(xc)   XCENC  =       -66.98391188
  PAW double counting   =       617.92159292     -522.70459809
  entropy T*S    EENTRO =        -0.00286741
  eigenvalues    EBANDS =       -62.22508445
  atomic energy  EATOM  =       307.74168684
  Solvation  Ediel_sol  =         0.00000000
  ---------------------------------------------------
  free energy    TOTEN  =       -14.48777605 eV

  energy without entropy =      -14.48490864  energy(sigma->0) =      -14.48634234


--------------------------------------------------------------------------------------------------------




--------------------------------------- Iteration      1(  17)  ---------------------------------------


    POTLOK:  cpu time    0.0137: real time    0.0137
    SETDIJ:  cpu time    0.0663: real time    0.0663
     EDDAV:  cpu time    1.6730: real time    1.6730
       DOS:  cpu time    0.0005: real time    0.0005
    CHARGE:  cpu time    0.0671: real time    0.0671
    MIXING:  cpu time    0.0025: real time    0.0025
    --------------------------------------------
      LOOP:  cpu time    1.8230: real time    1.8231

 eigenvalue-minimisations  :  3776
 total energy-change (2. order) :-0.3012949E-04  (-0.2617527E-06)
 number of electron      13.0000000 magnetization 
 augmentation part       -0.1227005 magnetization 

 DIPCOR: dipole corrections for dipol
 direction  3 min pos     1,
 dipolmoment           0.000000      0.000000      0.138197 electrons x Angstroem
 Tr[quadrupol]       -16.123767

 energy correction for charged system         0.000000 eV
 dipol+quadrupol energy correction           -0.012165 eV
 added-field ion interaction         -0.854362 eV  (added to PSCEN)


 Broyden mixing:
  rms(total) = 0.52203E-03    rms(broyden)= 0.52187E-03
  rms(prec ) = 0.95811E-03
  weight for this iteration     100.00

 eigenvalues of (default mixing * dielectric matrix)
  average eigenvalue GAMMA=   1.9117
  5.7804  4.1024  2.7319  2.3451  0.1795  1.8143  0.6389  1.1980  1.1980  0.9538
  0.9538  1.0442

 Free energy of the ion-electron system (eV)
  ---------------------------------------------------
  alpha Z        PSCENC =         0.70554393
  Ewald energy   TEWEN  =       829.94124035
  -Hartree energ DENC   =     -1118.89886465
  -exchange      EXHF   =         0.00000000
  -V(xc)+E(xc)   XCENC  =       -66.98358481
  PAW double counting   =       617.60730956     -522.39039968
  entropy T*S    EENTRO =        -0.00286785
  eigenvalues    EBANDS =       -62.20786987
  atomic energy  EATOM  =       307.74168684
  Solvation  Ediel_sol  =         0.00000000
  ---------------------------------------------------
  free energy    TOTEN  =       -14.48780618 eV

  energy without entropy =      -14.48493833  energy(sigma->0) =      -14.48637225


--------------------------------------------------------------------------------------------------------




--------------------------------------- Iteration      1(  18)  ---------------------------------------


    POTLOK:  cpu time    0.0144: real time    0.0144
    SETDIJ:  cpu time    0.0662: real time    0.0662
     EDDAV:  cpu time    1.5981: real time    1.5980
       DOS:  cpu time    0.0005: real time    0.0005
    CHARGE:  cpu time    0.0673: real time    0.0673
    MIXING:  cpu time    0.0026: real time    0.0026
    --------------------------------------------
      LOOP:  cpu time    1.7490: real time    1.7490

 eigenvalue-minimisations  :  3616
 total energy-change (2. order) :-0.5810537E-04  (-0.5561440E-06)
 number of electron      13.0000000 magnetization 
 augmentation part       -0.1227117 magnetization 

 DIPCOR: dipole corrections for dipol
 direction  3 min pos     1,
 dipolmoment           0.000000      0.000000      0.137920 electrons x Angstroem
 Tr[quadrupol]       -16.131703

 energy correction for charged system         0.000000 eV
 dipol+quadrupol energy correction           -0.012116 eV
 added-field ion interaction         -0.852647 eV  (added to PSCEN)


 Broyden mixing:
  rms(total) = 0.28193E-03    rms(broyden)= 0.28191E-03
  rms(prec ) = 0.83549E-03
  weight for this iteration     100.00

 eigenvalues of (default mixing * dielectric matrix)
  average eigenvalue GAMMA=   1.9443
  5.3674  5.3674  2.5715  2.5715  0.1795  1.9999  1.5410  0.6389  1.0786  1.0786
  0.9311  0.9754  0.9754

 Free energy of the ion-electron system (eV)
  ---------------------------------------------------
  alpha Z        PSCENC =         0.70730761
  Ewald energy   TEWEN  =       829.94124035
  -Hartree energ DENC   =     -1118.92174271
  -exchange      EXHF   =         0.00000000
  -V(xc)+E(xc)   XCENC  =       -66.98322580
  PAW double counting   =       617.21162429     -521.99483804
  entropy T*S    EENTRO =        -0.00286726
  eigenvalues    EBANDS =       -62.18704955
  atomic energy  EATOM  =       307.74168684
  Solvation  Ediel_sol  =         0.00000000
  ---------------------------------------------------
  free energy    TOTEN  =       -14.48786428 eV

  energy without entropy =      -14.48499702  energy(sigma->0) =      -14.48643065


--------------------------------------------------------------------------------------------------------




--------------------------------------- Iteration      1(  19)  ---------------------------------------


    POTLOK:  cpu time    0.0136: real time    0.0136
    SETDIJ:  cpu time    0.0661: real time    0.0661
     EDDAV:  cpu time    1.6785: real time    1.6785
       DOS:  cpu time    0.0005: real time    0.0005
    CHARGE:  cpu time    0.0671: real time    0.0671
    MIXING:  cpu time    0.0026: real time    0.0026
    --------------------------------------------
      LOOP:  cpu time    1.8284: real time    1.8283

 eigenvalue-minimisations  :  3776
 total energy-change (2. order) :-0.1191516E-04  (-0.4347466E-07)
 number of electron      13.0000000 magnetization 
 augmentation part       -0.1227165 magnetization 

 DIPCOR: dipole corrections for dipol
 direction  3 min pos     1,
 dipolmoment           0.000000      0.000000      0.137750 electrons x Angstroem
 Tr[quadrupol]       -16.133976

 energy correction for charged system         0.000000 eV
 dipol+quadrupol energy correction           -0.012086 eV
 added-field ion interaction         -0.851598 eV  (added to PSCEN)


 Broyden mixing:
  rms(total) = 0.23016E-03    rms(broyden)= 0.23014E-03
  rms(prec ) = 0.70838E-03
  weight for this iteration     100.00

 eigenvalues of (default mixing * dielectric matrix)
  average eigenvalue GAMMA=   2.0966
  5.8064  5.8064  3.1180  3.1180  2.5116  0.1795  1.8701  1.4258  0.6389  0.9474
  1.0044  1.0044  0.9611  0.9611

 Free energy of the ion-electron system (eV)
  ---------------------------------------------------
  alpha Z        PSCENC =         0.70838639
  Ewald energy   TEWEN  =       829.94124035
  -Hartree energ DENC   =     -1118.93084143
  -exchange      EXHF   =         0.00000000
  -V(xc)+E(xc)   XCENC  =       -66.98322085
  PAW double counting   =       617.24559075     -522.02878205
  entropy T*S    EENTRO =        -0.00286758
  eigenvalues    EBANDS =       -62.17906861
  atomic energy  EATOM  =       307.74168684
  Solvation  Ediel_sol  =         0.00000000
  ---------------------------------------------------
  free energy    TOTEN  =       -14.48787620 eV

  energy without entropy =      -14.48500862  energy(sigma->0) =      -14.48644241


--------------------------------------------------------------------------------------------------------




--------------------------------------- Iteration      1(  20)  ---------------------------------------


    POTLOK:  cpu time    0.0135: real time    0.0135
    SETDIJ:  cpu time    0.0662: real time    0.0662
     EDDAV:  cpu time    1.4597: real time    1.4597
       DOS:  cpu time    0.0004: real time    0.0004
    CHARGE:  cpu time    0.0677: real time    0.0677
    MIXING:  cpu time    0.0026: real time    0.0026
    --------------------------------------------
      LOOP:  cpu time    1.6102: real time    1.6101

 eigenvalue-minimisations  :  3360
 total energy-change (2. order) :-0.1969153E-04  (-0.2953668E-06)
 number of electron      13.0000000 magnetization 
 augmentation part       -0.1227283 magnetization 

 DIPCOR: dipole corrections for dipol
 direction  3 min pos     1,
 dipolmoment           0.000000      0.000000      0.137265 electrons x Angstroem
 Tr[quadrupol]       -16.139566

 energy correction for charged system         0.000000 eV
 dipol+quadrupol energy correction           -0.012001 eV
 added-field ion interaction         -0.848599 eV  (added to PSCEN)


 Broyden mixing:
  rms(total) = 0.13357E-03    rms(broyden)= 0.13353E-03
  rms(prec ) = 0.34394E-03
  weight for this iteration     100.00

 eigenvalues of (default mixing * dielectric matrix)
  average eigenvalue GAMMA=   2.0515
  5.9684  5.9684  3.7761  2.6920  2.3191  0.1795  1.9017  1.4572  0.6389  1.0735
[...]
 total energy-change (2. order) : 0.1351247E-05  (-0.4081555E-05)
 number of electron      13.0000000 magnetization 
 augmentation part       -0.1300163 magnetization 

 DIPCOR: dipole corrections for dipol
 direction  3 min pos     1,
 dipolmoment           0.000000      0.000000      0.131727 electrons x Angstroem
 Tr[quadrupol]       -16.183576

 energy correction for charged system         0.000000 eV
 dipol+quadrupol energy correction           -0.011052 eV
 added-field ion interaction         -0.830459 eV  (added to PSCEN)


 Broyden mixing:
  rms(total) = 0.65966E-03    rms(broyden)= 0.65928E-03
  rms(prec ) = 0.68399E-03
  weight for this iteration     100.00

 eigenvalues of (default mixing * dielectric matrix)
  average eigenvalue GAMMA=   1.0308
  2.3102  1.1326  0.1366  0.5436

 Free energy of the ion-electron system (eV)
  ---------------------------------------------------
  alpha Z        PSCENC =         0.73055930
  Ewald energy   TEWEN  =       804.97902561
  -Hartree energ DENC   =     -1095.82372253
  -exchange      EXHF   =         0.00000000
  -V(xc)+E(xc)   XCENC  =       -67.22682904
  PAW double counting   =       567.96205897     -472.70123834
  entropy T*S    EENTRO =        -0.00361530
  eigenvalues    EBANDS =       -60.41881376
  atomic energy  EATOM  =       307.74168684
  Solvation  Ediel_sol  =         0.00000000
  ---------------------------------------------------
  free energy    TOTEN  =       -14.76088825 eV

  energy without entropy =      -14.75727295  energy(sigma->0) =      -14.75908060


--------------------------------------------------------------------------------------------------------




--------------------------------------- Iteration      6(   6)  ---------------------------------------


    POTLOK:  cpu time    0.0165: real time    0.0165
    SETDIJ:  cpu time    0.0650: real time    0.0650
     EDDAV:  cpu time    1.7890: real time    1.7896
       DOS:  cpu time    0.0005: real time    0.0005
    CHARGE:  cpu time    0.0775: real time    0.0776
    MIXING:  cpu time    0.0023: real time    0.0023
    --------------------------------------------
      LOOP:  cpu time    1.9509: real time    1.9515

 eigenvalue-minimisations  :  4224
 total energy-change (2. order) :-0.1991522E-05  (-0.1390915E-06)
 number of electron      13.0000000 magnetization 
 augmentation part       -0.1300054 magnetization 

 DIPCOR: dipole corrections for dipol
 direction  3 min pos     1,
 dipolmoment           0.000000      0.000000      0.131753 electrons x Angstroem
 Tr[quadrupol]       -16.183497

 energy correction for charged system         0.000000 eV
 dipol+quadrupol energy correction           -0.011056 eV
 added-field ion interaction         -0.830623 eV  (added to PSCEN)


 Broyden mixing:
  rms(total) = 0.16032E-03    rms(broyden)= 0.16004E-03
  rms(prec ) = 0.20757E-03
  weight for this iteration     100.00

 eigenvalues of (default mixing * dielectric matrix)
  average eigenvalue GAMMA=   1.0994
  2.4615  0.1365  1.3186  0.9980  0.5822

 Free energy of the ion-electron system (eV)
  ---------------------------------------------------
  alpha Z        PSCENC =         0.73039127
  Ewald energy   TEWEN  =       804.97902561
  -Hartree energ DENC   =     -1095.81965754
  -exchange      EXHF   =         0.00000000
  -V(xc)+E(xc)   XCENC  =       -67.22697507
  PAW double counting   =       567.80177293     -472.54089802
  entropy T*S    EENTRO =        -0.00361074
  eigenvalues    EBANDS =       -60.42262552
  atomic energy  EATOM  =       307.74168684
  Solvation  Ediel_sol  =         0.00000000
  ---------------------------------------------------
  free energy    TOTEN  =       -14.76089024 eV

  energy without entropy =      -14.75727950  energy(sigma->0) =      -14.75908487


--------------------------------------------------------------------------------------------------------




--------------------------------------- Iteration      6(   7)  ---------------------------------------


    POTLOK:  cpu time    0.0165: real time    0.0165
    SETDIJ:  cpu time    0.0649: real time    0.0650
     EDDAV:  cpu time    1.9421: real time    1.9429
       DOS:  cpu time    0.0005: real time    0.0005
    CHARGE:  cpu time    0.0779: real time    0.0779
    MIXING:  cpu time    0.0023: real time    0.0023
    --------------------------------------------
      LOOP:  cpu time    2.1042: real time    2.1050

 eigenvalue-minimisations  :  4544
 total energy-change (2. order) :-0.2162870E-06  (-0.3046257E-07)
 number of electron      13.0000000 magnetization 
 augmentation part       -0.1300149 magnetization 

 DIPCOR: dipole corrections for dipol
 direction  3 min pos     1,
 dipolmoment           0.000000      0.000000      0.131780 electrons x Angstroem
 Tr[quadrupol]       -16.183421

 energy correction for charged system         0.000000 eV
 dipol+quadrupol energy correction           -0.011061 eV
 added-field ion interaction         -0.830794 eV  (added to PSCEN)


 Broyden mixing:
  rms(total) = 0.46425E-04    rms(broyden)= 0.46399E-04
  rms(prec ) = 0.54727E-04
  weight for this iteration     100.00

 eigenvalues of (default mixing * dielectric matrix)
  average eigenvalue GAMMA=   1.2044
  2.6256  1.7690  0.1365  1.1483  0.9682  0.5790

 Free energy of the ion-electron system (eV)
  ---------------------------------------------------
  alpha Z        PSCENC =         0.73021547
  Ewald energy   TEWEN  =       804.97902561
  -Hartree energ DENC   =     -1095.81834137
  -exchange      EXHF   =         0.00000000
  -V(xc)+E(xc)   XCENC  =       -67.22697454
  PAW double counting   =       567.75555702     -472.49469374
  entropy T*S    EENTRO =        -0.00361329
  eigenvalues    EBANDS =       -60.42375245
  atomic energy  EATOM  =       307.74168684
  Solvation  Ediel_sol  =         0.00000000
  ---------------------------------------------------
  free energy    TOTEN  =       -14.76089045 eV

  energy without entropy =      -14.75727716  energy(sigma->0) =      -14.75908381


--------------------------------------------------------------------------------------------------------




--------------------------------------- Iteration      6(   8)  ---------------------------------------


    POTLOK:  cpu time    0.0165: real time    0.0165
    SETDIJ:  cpu time    0.0648: real time    0.0648
     EDDAV:  cpu time    1.5393: real time    1.5402
       DOS:  cpu time    0.0005: real time    0.0005
    CHARGE:  cpu time    0.0775: real time    0.0775
    MIXING:  cpu time    0.0023: real time    0.0023
    --------------------------------------------
      LOOP:  cpu time    1.7008: real time    1.7017

 eigenvalue-minimisations  :  3712
 total energy-change (2. order) :-0.1232418E-06  (-0.1614145E-08)
 number of electron      13.0000000 magnetization 
 augmentation part       -0.1300167 magnetization 

 DIPCOR: dipole corrections for dipol
 direction  3 min pos     1,
 dipolmoment           0.000000      0.000000      0.131793 electrons x Angstroem
 Tr[quadrupol]       -16.183368

 energy correction for charged system         0.000000 eV
 dipol+quadrupol energy correction           -0.011063 eV
 added-field ion interaction         -0.830875 eV  (added to PSCEN)


 Broyden mixing:
  rms(total) = 0.32324E-04    rms(broyden)= 0.32295E-04
  rms(prec ) = 0.53577E-04
  weight for this iteration     100.00

 eigenvalues of (default mixing * dielectric matrix)
  average eigenvalue GAMMA=   1.3027
  0.1365  2.5039  2.3383  0.5813  1.4150  1.0440  1.0997

 Free energy of the ion-electron system (eV)
  ---------------------------------------------------
  alpha Z        PSCENC =         0.73013259
  Ewald energy   TEWEN  =       804.97902561
  -Hartree energ DENC   =     -1095.81743660
  -exchange      EXHF   =         0.00000000
  -V(xc)+E(xc)   XCENC  =       -67.22697946
  PAW double counting   =       567.73474039     -472.47388797
  entropy T*S    EENTRO =        -0.00361364
  eigenvalues    EBANDS =       -60.42455834
  atomic energy  EATOM  =       307.74168684
  Solvation  Ediel_sol  =         0.00000000
  ---------------------------------------------------
  free energy    TOTEN  =       -14.76089058 eV

  energy without entropy =      -14.75727694  energy(sigma->0) =      -14.75908376


--------------------------------------------------------------------------------------------------------




--------------------------------------- Iteration      6(   9)  ---------------------------------------


    POTLOK:  cpu time    0.0164: real time    0.0164
    SETDIJ:  cpu time    0.0648: real time    0.0648
     EDDAV:  cpu time    1.5316: real time    1.5323
       DOS:  cpu time    0.0005: real time    0.0005
    CHARGE:  cpu time    0.0783: real time    0.0783
    MIXING:  cpu time    0.0023: real time    0.0023
    --------------------------------------------
      LOOP:  cpu time    1.6939: real time    1.6947

 eigenvalue-minimisations  :  3680
 total energy-change (2. order) :-0.1318020E-06  (-0.4719349E-09)
 number of electron      13.0000000 magnetization 
 augmentation part       -0.1300162 magnetization 

 DIPCOR: dipole corrections for dipol
 direction  3 min pos     1,
 dipolmoment           0.000000      0.000000      0.131807 electrons x Angstroem
 Tr[quadrupol]       -16.183332

 energy correction for charged system         0.000000 eV
 dipol+quadrupol energy correction           -0.011066 eV
 added-field ion interaction         -0.830963 eV  (added to PSCEN)


 Broyden mixing:
  rms(total) = 0.18099E-04    rms(broyden)= 0.18081E-04
  rms(prec ) = 0.39933E-04
  weight for this iteration     100.00

 eigenvalues of (default mixing * dielectric matrix)
  average eigenvalue GAMMA=   1.3462
  2.6445  2.6445  0.1365  0.5812  1.4662  1.2665  0.9965  1.0341

 Free energy of the ion-electron system (eV)
  ---------------------------------------------------
  alpha Z        PSCENC =         0.73004139
  Ewald energy   TEWEN  =       804.97902561
  -Hartree energ DENC   =     -1095.81668831
  -exchange      EXHF   =         0.00000000
  -V(xc)+E(xc)   XCENC  =       -67.22699537
  PAW double counting   =       567.72956311     -472.46871573
  entropy T*S    EENTRO =        -0.00361356
  eigenvalues    EBANDS =       -60.42519469
  atomic energy  EATOM  =       307.74168684
  Solvation  Ediel_sol  =         0.00000000
  ---------------------------------------------------
  free energy    TOTEN  =       -14.76089071 eV

  energy without entropy =      -14.75727714  energy(sigma->0) =      -14.75908393


--------------------------------------------------------------------------------------------------------




--------------------------------------- Iteration      6(  10)  ---------------------------------------


    POTLOK:  cpu time    0.0167: real time    0.0167
    SETDIJ:  cpu time    0.0649: real time    0.0649
     EDDAV:  cpu time    1.5263: real time    1.5268
       DOS:  cpu time    0.0005: real time    0.0005
    CHARGE:  cpu time    0.0780: real time    0.0780
    MIXING:  cpu time    0.0024: real time    0.0024
    --------------------------------------------
      LOOP:  cpu time    1.6887: real time    1.6892

 eigenvalue-minimisations  :  3648
 total energy-change (2. order) :-0.6432589E-07  (-0.2313497E-09)
 number of electron      13.0000000 magnetization 
 augmentation part       -0.1300157 magnetization 

 DIPCOR: dipole corrections for dipol
 direction  3 min pos     1,
 dipolmoment           0.000000      0.000000      0.131816 electrons x Angstroem
 Tr[quadrupol]       -16.183299

 energy correction for charged system         0.000000 eV
 dipol+quadrupol energy correction           -0.011067 eV
 added-field ion interaction         -0.831016 eV  (added to PSCEN)


 Broyden mixing:
  rms(total) = 0.12872E-04    rms(broyden)= 0.12847E-04
  rms(prec ) = 0.28811E-04
  weight for this iteration     100.00

 eigenvalues of (default mixing * dielectric matrix)
  average eigenvalue GAMMA=   1.5566
  3.5227  0.1365  2.7338  2.4021  0.5812  0.9894  1.0695  1.2872  1.2872

 Free energy of the ion-electron system (eV)
  ---------------------------------------------------
  alpha Z        PSCENC =         0.72998744
  Ewald energy   TEWEN  =       804.97902561
  -Hartree energ DENC   =     -1095.81615661
  -exchange      EXHF   =         0.00000000
  -V(xc)+E(xc)   XCENC  =       -67.22700353
  PAW double counting   =       567.72831020     -472.46746362
  entropy T*S    EENTRO =        -0.00361331
  eigenvalues    EBANDS =       -60.42566379
  atomic energy  EATOM  =       307.74168684
  Solvation  Ediel_sol  =         0.00000000
  ---------------------------------------------------
  free energy    TOTEN  =       -14.76089077 eV

  energy without entropy =      -14.75727746  energy(sigma->0) =      -14.75908412


--------------------------------------------------------------------------------------------------------




--------------------------------------- Iteration      6(  11)  ---------------------------------------


    POTLOK:  cpu time    0.0165: real time    0.0165
    SETDIJ:  cpu time    0.0648: real time    0.0648
     EDDAV:  cpu time    1.3670: real time    1.3676
       DOS:  cpu time    0.0005: real time    0.0005
    CHARGE:  cpu time    0.0776: real time    0.0776
    MIXING:  cpu time    0.0024: real time    0.0024
    --------------------------------------------
      LOOP:  cpu time    1.5287: real time    1.5294

 eigenvalue-minimisations  :  3296
 total energy-change (2. order) :-0.7954731E-07  (-0.7822389E-09)
 number of electron      13.0000000 magnetization 
 augmentation part       -0.1300150 magnetization 

 DIPCOR: dipole corrections for dipol
 direction  3 min pos     1,
 dipolmoment           0.000000      0.000000      0.131832 electrons x Angstroem
 Tr[quadrupol]       -16.183233

 energy correction for charged system         0.000000 eV
 dipol+quadrupol energy correction           -0.011070 eV
 added-field ion interaction         -0.831121 eV  (added to PSCEN)


 Broyden mixing:
  rms(total) = 0.58085E-05    rms(broyden)= 0.57510E-05
  rms(prec ) = 0.13917E-04
  weight for this iteration     100.00

 eigenvalues of (default mixing * dielectric matrix)
  average eigenvalue GAMMA=   1.6891
  5.3640  2.5743  2.4672  0.1365  0.5812  1.4041  1.4041  1.0459  0.9567  0.9567

 Free energy of the ion-electron system (eV)
  ---------------------------------------------------
  alpha Z        PSCENC =         0.72987909
  Ewald energy   TEWEN  =       804.97902561
  -Hartree energ DENC   =     -1095.81523825
  -exchange      EXHF   =         0.00000000
  -V(xc)+E(xc)   XCENC  =       -67.22701673
  PAW double counting   =       567.72980585     -472.46895839
  entropy T*S    EENTRO =        -0.00361300
  eigenvalues    EBANDS =       -60.42646187
  atomic energy  EATOM  =       307.74168684
  Solvation  Ediel_sol  =         0.00000000
  ---------------------------------------------------
  free energy    TOTEN  =       -14.76089085 eV

  energy without entropy =      -14.75727785  energy(sigma->0) =      -14.75908435


--------------------------------------------------------------------------------------------------------




--------------------------------------- Iteration      6(  12)  ---------------------------------------


    POTLOK:  cpu time    0.0165: real time    0.0165
    SETDIJ:  cpu time    0.0649: real time    0.0649
     EDDAV:  cpu time    1.7171: real time    1.7176
       DOS:  cpu time    0.0005: real time    0.0005
    CHARGE:  cpu time    0.0776: real time    0.0776
    MIXING:  cpu time    0.0025: real time    0.0025
    --------------------------------------------
      LOOP:  cpu time    1.8790: real time    1.8796

 eigenvalue-minimisations  :  4032
 total energy-change (2. order) :-0.1331682E-07  (-0.7271888E-10)
 number of electron      13.0000000 magnetization 
 augmentation part       -0.1300148 magnetization 

 DIPCOR: dipole corrections for dipol
 direction  3 min pos     1,
 dipolmoment           0.000000      0.000000      0.131837 electrons x Angstroem
 Tr[quadrupol]       -16.183214

 energy correction for charged system         0.000000 eV
 dipol+quadrupol energy correction           -0.011071 eV
 added-field ion interaction         -0.831151 eV  (added to PSCEN)


 Broyden mixing:
  rms(total) = 0.36068E-05    rms(broyden)= 0.35162E-05
  rms(prec ) = 0.84386E-05
  weight for this iteration     100.00

 eigenvalues of (default mixing * dielectric matrix)
  average eigenvalue GAMMA=   1.7779
  5.8531  0.1365  2.7220  2.4544  2.2158  0.5812  1.3571  1.1967  0.9553  1.0424
  1.0424

 Free energy of the ion-electron system (eV)
  ---------------------------------------------------
  alpha Z        PSCENC =         0.72984907
  Ewald energy   TEWEN  =       804.97902561
  -Hartree energ DENC   =     -1095.81503131
  -exchange      EXHF   =         0.00000000
  -V(xc)+E(xc)   XCENC  =       -67.22701847
  PAW double counting   =       567.72943388     -472.46858692
  entropy T*S    EENTRO =        -0.00361289
  eigenvalues    EBANDS =       -60.42663669
  atomic energy  EATOM  =       307.74168684
  Solvation  Ediel_sol  =         0.00000000
  ---------------------------------------------------
  free energy    TOTEN  =       -14.76089087 eV

  energy without entropy =      -14.75727798  energy(sigma->0) =      -14.75908442


--------------------------------------------------------------------------------------------------------




--------------------------------------- Iteration      6(  13)  ---------------------------------------


    POTLOK:  cpu time    0.0164: real time    0.0164
    SETDIJ:  cpu time    0.0646: real time    0.0647
     EDDAV:  cpu time    1.3494: real time    1.3500
       DOS:  cpu time    0.0005: real time    0.0005
    CHARGE:  cpu time    0.0784: real time    0.0784
    MIXING:  cpu time    0.0025: real time    0.0025
    --------------------------------------------
      LOOP:  cpu time    1.5117: real time    1.5124

 eigenvalue-minimisations  :  3264
 total energy-change (2. order) :-0.1298775E-07  (-0.4698014E-10)
 number of electron      13.0000000 magnetization 
 augmentation part       -0.1300146 magnetization 

 DIPCOR: dipole corrections for dipol
 direction  3 min pos     1,
 dipolmoment           0.000000      0.000000      0.131841 electrons x Angstroem
 Tr[quadrupol]       -16.183197

 energy correction for charged system         0.000000 eV
 dipol+quadrupol energy correction           -0.011071 eV
 added-field ion interaction         -0.831174 eV  (added to PSCEN)


 Broyden mixing:
  rms(total) = 0.21686E-05    rms(broyden)= 0.20152E-05
  rms(prec ) = 0.43923E-05
  weight for this iteration     100.00

 eigenvalues of (default mixing * dielectric matrix)
  average eigenvalue GAMMA=   1.9149
  6.2693  3.5361  0.1365  2.6395  2.4487  1.8798  0.5812  1.3956  1.0618  1.0618
  0.9612  1.0081

 Free energy of the ion-electron system (eV)
  ---------------------------------------------------
  alpha Z        PSCENC =         0.72982482
  Ewald energy   TEWEN  =       804.97902561
  -Hartree energ DENC   =     -1095.81492881
  -exchange      EXHF   =         0.00000000
  -V(xc)+E(xc)   XCENC  =       -67.22701796
  PAW double counting   =       567.72932125     -472.46847462
  entropy T*S    EENTRO =        -0.00361281
  eigenvalues    EBANDS =       -60.42671520
  atomic energy  EATOM  =       307.74168684
  Solvation  Ediel_sol  =         0.00000000
  ---------------------------------------------------
  free energy    TOTEN  =       -14.76089088 eV

  energy without entropy =      -14.75727807  energy(sigma->0) =      -14.75908447


--------------------------------------------------------------------------------------------------------




--------------------------------------- Iteration      6(  14)  ---------------------------------------


    POTLOK:  cpu time    0.0167: real time    0.0167
    SETDIJ:  cpu time    0.0651: real time    0.0651
