<?xml version="1.0" encoding="ISO-8859-1"?>
<modeling>
 <generator>
  <i name="program" type="string">vasp </i>
  <i name="version" type="string">6.2.1  </i>
  <i name="subversion" type="string">16May21 (build Feb 21 2024 21:23:56) complex                          parallel </i>
  <i name="platform" type="string">LinuxIFC </i>
  <i name="date" type="string">2025 04 07 </i>
  <i name="time" type="string">18:48:04 </i>
 </generator>
 <incar>
  <i type="int" name="ISTART">     1</i>
  <i type="string" name="PREC">Accurate      (Accurate strictly avoids any aliasing or wrap around errors)</i>
  <i type="logical" name="ADDGRID"> T  </i>
  <i type="int" name="ISPIN">     1</i>
  <i type="int" name="NELM">    90</i>
  <i type="int" name="NELMIN">     6</i>
  <i type="int" name="IBRION">     2</i>
  <i name="EDIFF">      0.00000001</i>
  <i name="EDIFFG">     -0.02000000</i>
  <i type="int" name="NSW">   100</i>
  <i type="int" name="ISIF">     2</i>
  <i type="logical" name="LREAL"> F  </i>
  <i type="int" name="ISMEAR">     0</i>
  <i name="SIGMA">      0.05000000</i>
  <i type="logical" name="LWAVE"> T  </i>
  <i type="logical" name="LCHARG"> T  </i>
  <i type="logical" name="LASPH"> T  </i>
  <i type="logical" name="LDIPOL"> T  </i>
  <i type="int" name="IDIPOL">     3</i>
  <v name="DIPOL">      0.50000000      0.50000000      0.50000000</v>
 </incar>
 <primitive_cell>
  <structure name="primitive_cell" >
   <crystal>
    <varray name="basis" >
     <v>       2.86378246       0.00000000       0.00000000 </v>
     <v>       1.43189123       2.48010836       0.00000000 </v>
     <v>       0.00000000       0.00000000      20.00000000 </v>
    </varray>
    <i name="volume">    142.04981686 </i>
    <varray name="rec_basis" >
     <v>       0.34918853      -0.20160409       0.00000000 </v>
     <v>       0.00000000       0.40320819       0.00000000 </v>
     <v>       0.00000000       0.00000000       0.05000000 </v>
    </varray>
   </crystal>
   <varray name="positions" >
    <v>       0.83333333       0.50000000       0.33808657 </v>
    <v>       0.16666667       0.83333333       0.45500000 </v>
    <v>       0.50000000       0.16666667       0.57191343 </v>
    <v>       0.50000000       0.16666667       0.66191343 </v>
   </varray>
  </structure>
  <varray name="primitive_index" >
   <v type="int" >        1 </v>
   <v type="int" >        2 </v>
   <v type="int" >        3 </v>
   <v type="int" >        4 </v>
  </varray>
 </primitive_cell>
 <kpoints>
  <generation param="Monkhorst-Pack">
   <v type="int" name="divisions">      12       12        1 </v>
   <v name="usershift">      0.00000000       0.00000000       0.00000000 </v>
   <v name="genvec1">      0.08333333       0.00000000       0.00000000 </v>
   <v name="genvec2">      0.00000000       0.08333333       0.00000000 </v>
   <v name="genvec3">      0.00000000       0.00000000       1.00000000 </v>
   <v name="shift">      0.50000000       0.50000000       0.00000000 </v>
  </generation>
  <varray name="kpointlist" >
   <v>       0.04166667       0.04166667       0.00000000 </v>
   <v>       0.12500000       0.04166667       0.00000000 </v>
   <v>       0.20833333       0.04166667       0.00000000 </v>
   <v>       0.29166667       0.04166667       0.00000000 </v>
   <v>       0.37500000       0.04166667       0.00000000 </v>
   <v>       0.45833333       0.04166667       0.00000000 </v>
   <v>      -0.45833333       0.04166667       0.00000000 </v>
   <v>      -0.37500000       0.04166667       0.00000000 </v>
   <v>      -0.29166667       0.04166667       0.00000000 </v>
   <v>      -0.20833333       0.04166667       0.00000000 </v>
   <v>      -0.12500000       0.04166667       0.00000000 </v>
   <v>      -0.04166667       0.04166667       0.00000000 </v>
   <v>       0.12500000       0.12500000       0.00000000 </v>
   <v>       0.20833333       0.12500000       0.00000000 </v>
   <v>       0.29166667       0.12500000       0.00000000 </v>
   <v>       0.37500000       0.12500000       0.00000000 </v>
   <v>       0.45833333       0.12500000       0.00000000 </v>
   <v>      -0.45833333       0.12500000       0.00000000 </v>
   <v>      -0.37500000       0.12500000       0.00000000 </v>
   <v>      -0.29166667       0.12500000       0.00000000 </v>
   <v>      -0.20833333       0.12500000       0.00000000 </v>
   <v>      -0.12500000       0.12500000       0.00000000 </v>
   <v>       0.20833333       0.20833333       0.00000000 </v>
   <v>       0.29166667       0.20833333       0.00000000 </v>
   <v>       0.37500000       0.20833333       0.00000000 </v>
   <v>       0.45833333       0.20833333       0.00000000 </v>
   <v>      -0.45833333       0.20833333       0.00000000 </v>
   <v>      -0.37500000       0.20833333       0.00000000 </v>
   <v>      -0.29166667       0.20833333       0.00000000 </v>
   <v>      -0.20833333       0.20833333       0.00000000 </v>
   <v>       0.29166667       0.29166667       0.00000000 </v>
   <v>       0.37500000       0.29166667       0.00000000 </v>
   <v>       0.45833333       0.29166667       0.00000000 </v>
   <v>      -0.45833333       0.29166667       0.00000000 </v>
   <v>      -0.37500000       0.29166667       0.00000000 </v>
   <v>      -0.29166667       0.29166667       0.00000000 </v>
   <v>       0.37500000       0.37500000       0.00000000 </v>
   <v>       0.45833333       0.37500000       0.00000000 </v>
   <v>      -0.45833333       0.37500000       0.00000000 </v>
   <v>      -0.37500000       0.37500000       0.00000000 </v>
   <v>       0.45833333       0.45833333       0.00000000 </v>
   <v>      -0.45833333       0.45833333       0.00000000 </v>
  </varray>
  <varray name="weights" >
   <v>       0.01388889 </v>
   <v>       0.02777778 </v>
   <v>       0.02777778 </v>
   <v>       0.02777778 </v>
   <v>       0.02777778 </v>
   <v>       0.02777778 </v>
   <v>       0.02777778 </v>
   <v>       0.02777778 </v>
   <v>       0.02777778 </v>
   <v>       0.02777778 </v>
   <v>       0.02777778 </v>
   <v>       0.01388889 </v>
   <v>       0.01388889 </v>
   <v>       0.02777778 </v>
   <v>       0.02777778 </v>
   <v>       0.02777778 </v>
   <v>       0.02777778 </v>
   <v>       0.02777778 </v>
   <v>       0.02777778 </v>
   <v>       0.02777778 </v>
   <v>       0.02777778 </v>
   <v>       0.01388889 </v>
   <v>       0.01388889 </v>
   <v>       0.02777778 </v>
   <v>       0.02777778 </v>
   <v>       0.02777778 </v>
   <v>       0.02777778 </v>
   <v>       0.02777778 </v>
   <v>       0.02777778 </v>
   <v>       0.01388889 </v>
   <v>       0.01388889 </v>
   <v>       0.02777778 </v>
   <v>       0.02777778 </v>
   <v>       0.02777778 </v>
   <v>       0.02777778 </v>
   <v>       0.01388889 </v>
   <v>       0.01388889 </v>
   <v>       0.02777778 </v>
   <v>       0.02777778 </v>
   <v>       0.01388889 </v>
   <v>       0.01388889 </v>
   <v>       0.01388889 </v>
  </varray>
 </kpoints>
 <parameters>
  <separator name="general" >
   <i type="string" name="SYSTEM">unknown system</i>
   <i type="logical" name="LCOMPAT"> F  </i>
  </separator>
  <separator name="electronic" >
   <i type="string" name="PREC">accura</i>
   <i name="ENMAX">    400.00000000</i>
   <i name="ENAUG">    644.87300000</i>
   <i name="EDIFF">      0.00000001</i>
   <i type="int" name="IALGO">    38</i>
   <i type="int" name="IWAVPR">    11</i>
   <i type="int" name="NBANDS">    32</i>
   <i type="int" name="NBANDSLOW">    -1</i>
   <i type="int" name="NBANDSHIGH">    -1</i>
   <i name="NELECT">     13.00000000</i>
   <i type="int" name="TURBO">     0</i>
   <i type="int" name="IRESTART">     0</i>
   <i type="int" name="NREBOOT">     0</i>
   <i type="int" name="NMIN">     0</i>
   <i name="EREF">      0.00000000</i>
   <separator name="electronic smearing" >
    <i type="int" name="ISMEAR">     0</i>
    <i name="SIGMA">      0.05000000</i>
    <i name="KSPACING">      0.50000000</i>
    <i type="logical" name="KGAMMA"> T  </i>
    <i type="logical" name="KBLOWUP"> T  </i>
   </separator>
   <separator name="electronic projectors" >
    <i type="logical" name="LREAL"> F  </i>
    <v name="ROPT">      0.00000000      0.00000000</v>
    <i type="int" name="LMAXPAW">  -100</i>
    <i type="int" name="LMAXMIX">     2</i>
    <i type="logical" name="NLSPLINE"> F  </i>
   </separator>
   <separator name="electronic startup" >
    <i type="int" name="ISTART">     0</i>
    <i type="int" name="ICHARG">     2</i>
    <i type="int" name="INIWAV">     1</i>
   </separator>
   <separator name="electronic spin" >
    <i type="int" name="ISPIN">     1</i>
    <i type="logical" name="LNONCOLLINEAR"> F  </i>
    <v name="MAGMOM">      1.00000000      1.00000000      1.00000000      1.00000000</v>
    <i name="NUPDOWN">     -1.00000000</i>
    <i type="logical" name="LSORBIT"> F  </i>
    <v name="SAXIS">      0.00000000      0.00000000      1.00000000</v>
    <i type="logical" name="LSPIRAL"> F  </i>
    <v name="QSPIRAL">      0.00000000      0.00000000      0.00000000</v>
    <i type="logical" name="LZEROZ"> F  </i>
   </separator>
   <separator name="electronic exchange-correlation" >
    <i type="logical" name="LASPH"> T  </i>
    <i type="logical" name="LMETAGGA"> F  </i>
   </separator>
   <separator name="electronic convergence" >
    <i type="int" name="NELM">    90</i>
    <i type="int" name="NELMDL">     0</i>
    <i type="int" name="NELMIN">     6</i>
    <i name="ENINI">    400.00000000</i>
    <separator name="electronic convergence detail" >
     <i type="logical" name="LDIAG"> T  </i>
     <i type="logical" name="LSUBROT"> F  </i>
     <i name="WEIMIN">      0.00100000</i>
     <i name="EBREAK">      0.00000000</i>
     <i name="DEPER">      0.30000000</i>
     <i type="int" name="NRMM">     4</i>
     <i name="TIME">      0.40000000</i>
    </separator>
   </separator>
   <separator name="electronic mixer" >
    <i name="AMIX">      0.40000000</i>
    <i name="BMIX">      1.00000000</i>
    <i name="AMIN">      0.10000000</i>
    <i name="AMIX_MAG">      1.60000000</i>
    <i name="BMIX_MAG">      1.00000000</i>
    <separator name="electronic mixer details" >
     <i type="int" name="IMIX">     4</i>
     <i type="logical" name="MIXFIRST"> F  </i>
     <i type="int" name="MAXMIX">   -45</i>
     <i name="WC">    100.00000000</i>
     <i type="int" name="INIMIX">     1</i>
     <i type="int" name="MIXPRE">     1</i>
     <i type="int" name="MREMOVE">     5</i>
    </separator>
   </separator>
   <separator name="electronic dipolcorrection" >
    <i type="logical" name="LDIPOL"> T  </i>
    <i type="logical" name="LMONO"> F  </i>
    <i type="int" name="IDIPOL">     3</i>
    <i name="EPSILON">      1.00000000</i>
    <v name="DIPOL">      0.50000000      0.50000000      0.50000000</v>
    <i name="EFIELD">      0.00000000</i>
   </separator>
  </separator>
  <separator name="grids" >
   <i type="int" name="NGX">    20</i>
   <i type="int" name="NGY">    20</i>
   <i type="int" name="NGZ">   140</i>
   <i type="int" name="NGXF">    40</i>
   <i type="int" name="NGYF">    40</i>
   <i type="int" name="NGZF">   280</i>
   <i type="logical" name="ADDGRID"> T  </i>
  </separator>
  <separator name="ionic" >
   <i type="int" name="NSW">   100</i>
   <i type="int" name="IBRION">     2</i>
   <i type="int" name="MDALGO">     0</i>
   <i type="int" name="ISIF">     2</i>
   <i name="PSTRESS">      0.00000000</i>
   <i name="EDIFFG">     -0.02000000</i>
   <i type="int" name="NFREE">     1</i>
   <i name="POTIM">      0.50000000</i>
   <i name="SMASS">     -3.00000000</i>
   <i name="SCALEE">      1.00000000</i>
  </separator>
  <separator name="ionic md" >
   <i name="TEBEG">      0.00010000</i>
   <i name="TEEND">      0.00010000</i>
   <i type="int" name="NBLOCK">     1</i>
   <i type="int" name="KBLOCK">   100</i>
   <i type="int" name="NPACO">   256</i>
   <i name="APACO">     16.00000000</i>
  </separator>
  <separator name="symmetry" >
   <i type="int" name="ISYM">     2</i>
   <i name="SYMPREC">      0.00001000</i>
  </separator>
  <separator name="dos" >
   <i type="int" name="LORBIT">     0</i>
   <v name="RWIGS">     -1.00000000     -1.00000000</v>
   <i type="int" name="NEDOS">   301</i>
   <i name="EMIN">     10.00000000</i>
   <i name="EMAX">    -10.00000000</i>
   <i name="EFERMI">      0.00000000</i>
  </separator>
  <separator name="writing" >
   <i type="int" name="NWRITE">     2</i>
   <i type="logical" name="LWAVE"> T  </i>
   <i type="logical" name="LDOWNSAMPLE"> F  </i>
   <i type="logical" name="LCHARG"> T  </i>
   <i type="logical" name="LPARD"> F  </i>
   <i type="logical" name="LVTOT"> F  </i>
   <i type="logical" name="LVHAR"> F  </i>
   <i type="logical" name="LELF"> F  </i>
   <i type="logical" name="LOPTICS"> F  </i>
   <v name="STM">      0.00000000      0.00000000      0.00000000      0.00000000      0.00000000      0.00000000      0.00000000</v>
  </separator>
  <separator name="performance" >
   <i type="int" name="NPAR">    32</i>
   <i type="int" name="NSIM">     4</i>
   <i type="int" name="NBLK">    -1</i>
   <i type="logical" name="LPLANE"> T  </i>
   <i type="logical" name="LSCALAPACK"> T  </i>
   <i type="logical" name="LSCAAWARE"> F  </i>
   <i type="logical" name="LSCALU"> F  </i>
   <i type="logical" name="LASYNC"> F  </i>
   <i type="logical" name="LORBITALREAL"> F  </i>
  </separator>
  <separator name="miscellaneous" >
   <i type="int" name="IDIOT">     3</i>
   <i type="int" name="PHON_NSTRUCT">    -1</i>
   <i type="logical" name="LMUSIC"> F  </i>
   <v name="POMASS">     26.98100000     12.01100000</v>
   <v name="DARWINR">      0.00000000      0.00000000</v>
   <v name="DARWINV">      1.00000000      1.00000000</v>
   <i type="logical" name="LCORR"> T  </i>
  </separator>
  <i type="logical" name="GGA_COMPAT"> T  </i>
  <i type="logical" name="LBERRY"> F  </i>
  <i type="int" name="ICORELEVEL">     0</i>
  <i type="logical" name="LDAU"> F  </i>
  <i type="int" name="I_CONSTRAINED_M">     0</i>
  <separator name="electronic exchange-correlation" >
   <i type="string" name="GGA">--</i>
   <i type="int" name="VOSKOWN">     0</i>
   <i type="logical" name="LHFCALC"> F  </i>
   <i type="string" name="PRECFOCK"></i>
   <i type="logical" name="LSYMGRAD"> F  </i>
   <i type="logical" name="LHFONE"> F  </i>
   <i type="logical" name="LRHFCALC"> F  </i>
   <i type="logical" name="LTHOMAS"> F  </i>
   <i type="logical" name="LMODELHF"> F  </i>
   <i type="logical" name="LFOCKACE"> F  </i>
   <i name="ENCUT4O">     -1.00000000</i>
   <i type="int" name="EXXOEP">     0</i>
   <i type="int" name="FOURORBIT">     0</i>
   <i name="AEXX">      0.00000000</i>
   <i name="HFALPHA">      0.00000000</i>
   <i name="MCALPHA">      0.00000000</i>
   <i name="ALDAX">      1.00000000</i>
   <i name="AGGAX">      1.00000000</i>
   <i name="ALDAC">      1.00000000</i>
   <i name="AGGAC">      1.00000000</i>
   <i type="int" name="NKREDX">     1</i>
   <i type="int" name="NKREDY">     1</i>
   <i type="int" name="NKREDZ">     1</i>
   <i type="logical" name="SHIFTRED"> F  </i>
   <i type="logical" name="ODDONLY"> F  </i>
   <i type="logical" name="EVENONLY"> F  </i>
   <i type="int" name="LMAXFOCK">     0</i>
   <i type="int" name="NMAXFOCKAE">     0</i>
   <i type="logical" name="LFOCKAEDFT"> F  </i>
   <i name="HFSCREEN">      0.00000000</i>
   <i name="HFSCREENC">      0.00000000</i>
   <i type="int" name="NBANDSGWLOW">     0</i>
  </separator>
  <separator name="vdW DFT" >
   <i type="logical" name="LUSE_VDW"> F  </i>
   <i name="Zab_VDW">     -0.84910000</i>
   <i name="PARAM1">      0.12340000</i>
   <i name="PARAM2">      1.00000000</i>
   <i name="PARAM3">      0.00000000</i>
  </separator>
  <separator name="model GW" >
   <i type="int" name="MODEL_GW">     0</i>
   <i name="MODEL_EPS0">     21.30747253</i>
   <i name="MODEL_ALPHA">      1.00000000</i>
  </separator>
  <separator name="linear response parameters" >
   <i type="logical" name="LEPSILON"> F  </i>
   <i type="logical" name="LRPA"> F  </i>
   <i type="logical" name="LNABLA"> F  </i>
   <i type="logical" name="LVEL"> F  </i>
   <i type="int" name="KINTER">     0</i>
   <i name="CSHIFT">      0.10000000</i>
   <i name="OMEGAMAX">     -1.00000000</i>
   <i name="DEG_THRESHOLD">      0.00200000</i>
   <i name="RTIME">     -0.10000000</i>
   <i name="WPLASMAI">      0.00000000</i>
   <v name="DFIELD">      0.00000000      0.00000000      0.00000000</v>
   <v name="WPLASMA">      0.00000000      0.00000000      0.00000000      0.00000000      0.00000000      0.00000000      0.00000000      0.00000000      0.00000000</v>
  </separator>
  <separator name="orbital magnetization" >
   <i type="logical" name="NUCIND"> F  </i>
   <v name="MAGPOS">      0.00000000      0.00000000      0.00000000</v>
   <i type="logical" name="LNICSALL"> T  </i>
   <i type="logical" name="ORBITALMAG"> F  </i>
   <i type="logical" name="LMAGBLOCH"> F  </i>
   <i type="logical" name="LCHIMAG"> F  </i>
   <i type="logical" name="LGAUGE"> T  </i>
   <i type="int" name="MAGATOM">     0</i>
   <v name="MAGDIPOL">      0.00000000      0.00000000      0.00000000</v>
   <v name="AVECCONST">      0.00000000      0.00000000      0.00000000</v>
  </separator>
  <separator name="response functions" >
   <i type="logical" name="LFINITE_TEMPERATURE"> F  </i>
   <i type="logical" name="LADDER"> F  </i>
   <i type="logical" name="LRPAFORCE"> F  </i>
   <i type="logical" name="LFXC"> F  </i>
   <i type="logical" name="LHARTREE"> T  </i>
   <i type="int" name="IBSE">     0</i>
   <v type="int" name="KPOINT">    -1     0     0     0</v>
   <i type="logical" name="LTCTC"> F  </i>
   <i type="logical" name="LTCTE"> F  </i>
   <i type="logical" name="LTETE"> F  </i>
   <i type="logical" name="LTRIPLET"> F  </i>
   <i type="logical" name="LFXCEPS"> F  </i>
   <i type="logical" name="LFXHEG"> F  </i>
   <i type="int" name="NATURALO">     2</i>
   <i type="logical" name="LHOLEGF"> F  </i>
   <i type="logical" name="L2ORDER"> F  </i>
   <i type="logical" name="LDMP1"> F  </i>
   <i type="logical" name="LMP2LT"> F  </i>
   <i type="logical" name="LSMP2LT"> F  </i>
   <i type="logical" name="LGWLF"> F  </i>
   <i name="ENCUTGW">     -2.00000000</i>
   <i name="ENCUTGWSOFT">     -2.00000000</i>
   <i name="ENCUTLF">     -1.00000000</i>
   <i type="logical" name="LESF_SPLINES"> F  </i>
   <i type="int" name="LMAXMP2">    -1</i>
   <i name="SCISSOR">      0.00000000</i>
   <i type="int" name="NOMEGA">     0</i>
   <i type="int" name="NOMEGAR">     0</i>
   <i type="int" name="NBANDSGW">    -1</i>
   <i type="int" name="NBANDSO">    -1</i>
   <i type="int" name="NBANDSV">    -1</i>
   <i type="int" name="NELM">    90</i>
   <i type="int" name="NELMHF">     1</i>
   <i type="int" name="DIM">     3</i>
   <i type="int" name="IESPILON">     4</i>
   <i type="int" name="ANTIRES">     0</i>
   <i name="OMEGAMAX">    -30.00000000</i>
   <i name="OMEGAMIN">    -30.00000000</i>
   <i name="OMEGATL">   -200.00000000</i>
   <i type="int" name="OMEGAGRID">     0</i>
   <i name="CSHIFT">     -0.10000000</i>
   <i type="logical" name="LSELFENERGY"> F  </i>
   <i type="logical" name="LSPECTRAL"> F  </i>
   <i type="logical" name="LSPECTRALGW"> F  </i>
   <i type="logical" name="LSINGLES"> F  </i>
   <i type="logical" name="LFERMIGW"> F  </i>
   <i type="logical" name="ODDONLYGW"> F  </i>
   <i type="logical" name="EVENONLYGW"> F  </i>
   <i type="int" name="NKREDLFX">     1</i>
   <i type="int" name="NKREDLFY">     1</i>
   <i type="int" name="NKREDLFZ">     1</i>
   <i type="int" name="MAXMEM">  2800</i>
   <i type="int" name="TELESCOPE">     0</i>
   <i type="int" name="NTAUPAR">    -1</i>
   <i type="int" name="NOMEGAPAR">    -1</i>
   <i name="DAMP_NEWTON">      0.80000001</i>
   <i name="LAMBDA">      1.00000000</i>
  </separator>
  <separator name="External order field" >
   <i name="OFIELD_KAPPA">      0.00000000</i>
   <v name="OFIELD_K">      0.00000000      0.00000000      0.00000000</v>
   <i name="OFIELD_Q6_NEAR">      0.00000000</i>
   <i name="OFIELD_Q6_FAR">      0.00000000</i>
   <i name="OFIELD_A">      0.00000000</i>
  </separator>
 </parameters>
 <atominfo>
  <atoms>       4 </atoms>
  <types>       2 </types>
  <array name="atoms" >
   <dimension dim="1">ion</dimension>
   <field type="string">element</field>
   <field type="int">atomtype</field>
   <set>
    <rc><c>Al</c><c>   1</c></rc>
    <rc><c>Al</c><c>   1</c></rc>
    <rc><c>Al</c><c>   1</c></rc>
    <rc><c>C </c><c>   2</c></rc>
   </set>
  </array>
  <array name="atomtypes" >
   <dimension dim="1">type</dimension>
   <field type="int">atomspertype</field>
   <field type="string">element</field>
   <field>mass</field>
   <field>valence</field>
   <field type="string">pseudopotential</field>
   <set>
    <rc><c>   3</c><c>Al</c><c>     26.98100000</c><c>      3.00000000</c><c>  PAW_PBE Al 04Jan2001                  </c></rc>
    <rc><c>   1</c><c>C </c><c>     12.01100000</c><c>      4.00000000</c><c>  PAW_PBE C 08Apr2002                   </c></rc>
   </set>
  </array>
 </atominfo>
 <structure name="initialpos" >
  <crystal>
   <varray name="basis" >
    <v>       2.86378246       0.00000000       0.00000000 </v>
    <v>       1.43189123       2.48010836       0.00000000 </v>
    <v>       0.00000000       0.00000000      20.00000000 </v>
   </varray>
   <i name="volume">    142.04981686 </i>
   <varray name="rec_basis" >
    <v>       0.34918853      -0.20160409       0.00000000 </v>
    <v>       0.00000000       0.40320819       0.00000000 </v>
    <v>       0.00000000       0.00000000       0.05000000 </v>
   </varray>
  </crystal>
  <varray name="positions" >
   <v>       0.83333333       0.50000000       0.33808657 </v>
   <v>       0.16666667       0.83333333       0.45500000 </v>
   <v>       0.50000000       0.16666667       0.57191343 </v>
   <v>       0.50000000       0.16666667       0.66191343 </v>
  </varray>
 </structure>
 <calculation>
  <scstep>
   <time name="dav">    1.17    1.18</time>
   <time name="total">    1.26    1.26</time>
   <dipole>
    <v name="dipole">      0.00000000       0.00000000       0.00012974 </v>
    <i name="Tr[quadrupol]">    -15.09471959 </i>
    <i name="Echarged">      0.00000000 </i>
    <i name="Edipol_quadrupol">      0.00000000 </i>
    <i name="Eion">      0.00000000 </i>
   </dipole>
   <energy>
    <i name="alphaZ">      1.57126820 </i>
    <i name="ewald">    829.94124035 </i>
    <i name="hartreedc">  -1107.59388041 </i>
    <i name="XCdc">    -67.55429447 </i>
    <i name="pawpsdc">    307.12251776 </i>
    <i name="pawaedc">   -211.82831446 </i>
    <i name="eentropy">     -0.00228175 </i>
    <i name="bandstr">    -56.50186187 </i>
    <i name="atom">    307.74168684 </i>
    <i name="e_fr_energy">      2.89608018 </i>
    <i name="e_wo_entrp">      2.89836193 </i>
    <i name="e_0_energy">      2.89722105 </i>
   </energy>
  </scstep>
  <scstep>
   <time name="dav">    1.83    1.83</time>
   <time name="total">    1.83    1.83</time>
   <dipole>
    <v name="dipole">      0.00000000       0.00000000       0.00012974 </v>
    <i name="Tr[quadrupol]">    -15.09471959 </i>
    <i name="Echarged">      0.00000000 </i>
    <i name="Edipol_quadrupol">      0.00000000 </i>
    <i name="Eion">      0.00000000 </i>
   </dipole>
   <energy>
    <i name="e_fr_energy">    -15.15844361 </i>
    <i name="e_wo_entrp">    -15.15652822 </i>
    <i name="e_0_energy">    -15.15748591 </i>
   </energy>
  </scstep>
  <scstep>
   <time name="dav">    1.69    1.69</time>
   <time name="total">    1.69    1.69</time>
   <dipole>
    <v name="dipole">      0.00000000       0.00000000       0.00012974 </v>
    <i name="Tr[quadrupol]">    -15.09471959 </i>
    <i name="Echarged">      0.00000000 </i>
    <i name="Edipol_quadrupol">      0.00000000 </i>
    <i name="Eion">      0.00000000 </i>
   </dipole>
   <energy>
    <i name="e_fr_energy">    -15.47293255 </i>
    <i name="e_wo_entrp">    -15.47100368 </i>
    <i name="e_0_energy">    -15.47196812 </i>
   </energy>
  </scstep>
  <scstep>
   <time name="dav">    2.26    2.26</time>
   <time name="total">    2.26    2.26</time>
   <dipole>
    <v name="dipole">      0.00000000       0.00000000       0.00012974 </v>
    <i name="Tr[quadrupol]">    -15.09471959 </i>
    <i name="Echarged">      0.00000000 </i>
    <i name="Edipol_quadrupol">      0.00000000 </i>
    <i name="Eion">      0.00000000 </i>
   </dipole>
   <energy>
    <i name="e_fr_energy">    -15.47566763 </i>
    <i name="e_wo_entrp">    -15.47373711 </i>
    <i name="e_0_energy">    -15.47470237 </i>
   </energy>
  </scstep>
  <scstep>
   <time name="dav">    1.62    1.62</time>
   <time name="total">    1.70    1.70</time>
   <dipole>
    <v name="dipole">      0.00000000       0.00000000       0.00012974 </v>
    <i name="Tr[quadrupol]">    -15.09471959 </i>
    <i name="Echarged">      0.00000000 </i>
    <i name="Edipol_quadrupol">      0.00000000 </i>
    <i name="Eion">      0.00000000 </i>
   </dipole>
   <energy>
    <i name="e_fr_energy">    -15.47566857 </i>
    <i name="e_wo_entrp">    -15.47373806 </i>
    <i name="e_0_energy">    -15.47470332 </i>
   </energy>
  </scstep>
  <scstep>
   <time name="dav">    1.82    1.82</time>
   <time name="total">    1.97    1.97</time>
   <dipole>
    <v name="dipole">      0.00000000       0.00000000       0.43807675 </v>
    <i name="Tr[quadrupol]">    -15.27461500 </i>
    <i name="Echarged">      0.00000000 </i>
    <i name="Edipol_quadrupol">      0.00000000 </i>
    <i name="Eion">      0.00000000 </i>
   </dipole>
   <energy>
    <i name="e_fr_energy">    -28.49010958 </i>
    <i name="e_wo_entrp">    -28.48836009 </i>
    <i name="e_0_energy">    -28.48923483 </i>
   </energy>
  </scstep>
  <scstep>
   <time name="dav">    2.16    2.16</time>
   <time name="total">    2.31    2.31</time>
   <dipole>
    <v name="dipole">      0.00000000       0.00000000       0.05189744 </v>
    <i name="Tr[quadrupol]">    -15.24417087 </i>
    <i name="Echarged">      0.00000000 </i>
    <i name="Edipol_quadrupol">      0.00000000 </i>
    <i name="Eion">      0.00000000 </i>
   </dipole>
   <energy>
    <i name="e_fr_energy">    -14.63921469 </i>
    <i name="e_wo_entrp">    -14.63496148 </i>
    <i name="e_0_energy">    -14.63708809 </i>
   </energy>
  </scstep>
  <scstep>
   <time name="dav">    1.68    1.68</time>
   <time name="total">    1.83    1.83</time>
   <dipole>
    <v name="dipole">      0.00000000       0.00000000       0.09270955 </v>
    <i name="Tr[quadrupol]">    -15.63133102 </i>
    <i name="Echarged">      0.00000000 </i>
    <i name="Edipol_quadrupol">      0.00000000 </i>
    <i name="Eion">      0.00000000 </i>
   </dipole>
   <energy>
    <i name="e_fr_energy">    -14.52218529 </i>
    <i name="e_wo_entrp">    -14.51925175 </i>
    <i name="e_0_energy">    -14.52071852 </i>
   </energy>
  </scstep>
  <scstep>
   <time name="dav">    2.07    2.07</time>
   <time name="total">    2.22    2.22</time>
   <dipole>
    <v name="dipole">      0.00000000       0.00000000       0.09814505 </v>
    <i name="Tr[quadrupol]">    -15.69053711 </i>
    <i name="Echarged">      0.00000000 </i>
    <i name="Edipol_quadrupol">      0.00000000 </i>
    <i name="Eion">      0.00000000 </i>
   </dipole>
   <energy>
    <i name="e_fr_energy">    -14.49440588 </i>
    <i name="e_wo_entrp">    -14.49164716 </i>
    <i name="e_0_energy">    -14.49302652 </i>
   </energy>
  </scstep>
  <scstep>
   <time name="dav">    2.22    2.22</time>
   <time name="total">    2.37    2.37</time>
   <dipole>
    <v name="dipole">      0.00000000       0.00000000       0.10236750 </v>
    <i name="Tr[quadrupol]">    -15.76348789 </i>
    <i name="Echarged">      0.00000000 </i>
    <i name="Edipol_quadrupol">      0.00000000 </i>
    <i name="Eion">      0.00000000 </i>
   </dipole>
   <energy>
    <i name="e_fr_energy">    -14.49063218 </i>
    <i name="e_wo_entrp">    -14.48792143 </i>
    <i name="e_0_energy">    -14.48927681 </i>
   </energy>
  </scstep>
  <scstep>
   <time name="dav">    1.98    1.98</time>
   <time name="total">    2.13    2.13</time>
   <dipole>
    <v name="dipole">      0.00000000       0.00000000       0.11179720 </v>
    <i name="Tr[quadrupol]">    -15.85973763 </i>
    <i name="Echarged">      0.00000000 </i>
    <i name="Edipol_quadrupol">      0.00000000 </i>
    <i name="Eion">      0.00000000 </i>
   </dipole>
   <energy>
    <i name="e_fr_energy">    -14.48877802 </i>
    <i name="e_wo_entrp">    -14.48599682 </i>
    <i name="e_0_energy">    -14.48738742 </i>
   </energy>
  </scstep>
  <scstep>
   <time name="dav">    2.16    2.16</time>
   <time name="total">    2.31    2.31</time>
   <dipole>
    <v name="dipole">      0.00000000       0.00000000       0.11800153 </v>
    <i name="Tr[quadrupol]">    -15.92624842 </i>
    <i name="Echarged">      0.00000000 </i>
    <i name="Edipol_quadrupol">      0.00000000 </i>
    <i name="Eion">      0.00000000 </i>
   </dipole>
   <energy>
    <i name="e_fr_energy">    -14.48798225 </i>
    <i name="e_wo_entrp">    -14.48515784 </i>
    <i name="e_0_energy">    -14.48657004 </i>
   </energy>
  </scstep>
  <scstep>
   <time name="dav">    1.72    1.72</time>
   <time name="total">    1.87    1.87</time>
   <dipole>
    <v name="dipole">      0.00000000       0.00000000       0.12568828 </v>
    <i name="Tr[quadrupol]">    -15.99998571 </i>
    <i name="Echarged">      0.00000000 </i>
    <i name="Edipol_quadrupol">      0.00000000 </i>
    <i name="Eion">      0.00000000 </i>
   </dipole>
   <energy>
    <i name="e_fr_energy">    -14.48757928 </i>
    <i name="e_wo_entrp">    -14.48471206 </i>
    <i name="e_0_energy">    -14.48614567 </i>
   </energy>
  </scstep>
  <scstep>
   <time name="dav">    1.53    1.53</time>
   <time name="total">    1.68    1.68</time>
   <dipole>
    <v name="dipole">      0.00000000       0.00000000       0.13215780 </v>
    <i name="Tr[quadrupol]">    -16.05719104 </i>
    <i name="Echarged">      0.00000000 </i>
    <i name="Edipol_quadrupol">      0.00000000 </i>
    <i name="Eion">      0.00000000 </i>
   </dipole>
   <energy>
    <i name="e_fr_energy">    -14.48752580 </i>
    <i name="e_wo_entrp">    -14.48465333 </i>
    <i name="e_0_energy">    -14.48608957 </i>
   </energy>
  </scstep>
  <scstep>
   <time name="dav">    1.46    1.46</time>
   <time name="total">    1.61    1.61</time>
   <dipole>
    <v name="dipole">      0.00000000       0.00000000       0.13579162 </v>
    <i name="Tr[quadrupol]">    -16.09065092 </i>
    <i name="Echarged">      0.00000000 </i>
    <i name="Edipol_quadrupol">      0.00000000 </i>
    <i name="Eion">      0.00000000 </i>
   </dipole>
   <energy>
    <i name="e_fr_energy">    -14.48763069 </i>
    <i name="e_wo_entrp">    -14.48475722 </i>
    <i name="e_0_energy">    -14.48619396 </i>
   </energy>
  </scstep>
  <scstep>
   <time name="dav">    1.77    1.77</time>
   <time name="total">    1.92    1.92</time>
   <dipole>
    <v name="dipole">      0.00000000       0.00000000       0.13812701 </v>
    <i name="Tr[quadrupol]">    -16.11898471 </i>
    <i name="Echarged">      0.00000000 </i>
    <i name="Edipol_quadrupol">      0.00000000 </i>
    <i name="Eion">      0.00000000 </i>
   </dipole>
   <energy>
    <i name="e_fr_energy">    -14.48777605 </i>
    <i name="e_wo_entrp">    -14.48490864 </i>
    <i name="e_0_energy">    -14.48634234 </i>
   </energy>
  </scstep>
  <scstep>
   <time name="dav">    1.67    1.67</time>
   <time name="total">    1.82    1.82</time>
   <dipole>
    <v name="dipole">      0.00000000       0.00000000       0.13819733 </v>
    <i name="Tr[quadrupol]">    -16.12376658 </i>
    <i name="Echarged">      0.00000000 </i>
    <i name="Edipol_quadrupol">      0.00000000 </i>
    <i name="Eion">      0.00000000 </i>
   </dipole>
   <energy>
    <i name="e_fr_energy">    -14.48780618 </i>
    <i name="e_wo_entrp">    -14.48493833 </i>
    <i name="e_0_energy">    -14.48637225 </i>
   </energy>
  </scstep>
  <scstep>
   <time name="dav">    1.60    1.60</time>
   <time name="total">    1.75    1.75</time>
   <dipole>
    <v name="dipole">      0.00000000       0.00000000       0.13791994 </v>
    <i name="Tr[quadrupol]">    -16.13170280 </i>
    <i name="Echarged">      0.00000000 </i>
    <i name="Edipol_quadrupol">      0.00000000 </i>
    <i name="Eion">      0.00000000 </i>
   </dipole>
   <energy>
    <i name="e_fr_energy">    -14.48786428 </i>
    <i name="e_wo_entrp">    -14.48499702 </i>
    <i name="e_0_energy">    -14.48643065 </i>
   </energy>
  </scstep>
  <scstep>
   <time name="dav">    1.68    1.68</time>
   <time name="total">    1.83    1.83</time>
   <dipole>
    <v name="dipole">      0.00000000       0.00000000       0.13775026 </v>
    <i name="Tr[quadrupol]">    -16.13397599 </i>
    <i name="Echarged">      0.00000000 </i>
    <i name="Edipol_quadrupol">      0.00000000 </i>
    <i name="Eion">      0.00000000 </i>
   </dipole>
   <energy>
    <i name="e_fr_energy">    -14.48787620 </i>
    <i name="e_wo_entrp">    -14.48500862 </i>
    <i name="e_0_energy">    -14.48644241 </i>
   </energy>
  </scstep>
  <scstep>
   <time name="dav">    1.46    1.46</time>
   <time name="total">    1.61    1.61</time>
   <dipole>
    <v name="dipole">      0.00000000       0.00000000       0.13726523 </v>
    <i name="Tr[quadrupol]">    -16.13956648 </i>
    <i name="Echarged">      0.00000000 </i>
    <i name="Edipol_quadrupol">      0.00000000 </i>
    <i name="Eion">      0.00000000 </i>
   </dipole>
   <energy>
    <i name="e_fr_energy">    -14.48789589 </i>
    <i name="e_wo_entrp">    -14.48502665 </i>
    <i name="e_0_energy">    -14.48646127 </i>
   </energy>
  </scstep>
  <scstep>
   <time name="dav">    1.95    1.95</time>
   <time name="total">    2.10    2.10</time>
   <dipole>
    <v name="dipole">      0.00000000       0.00000000       0.13719449 </v>
    <i name="Tr[quadrupol]">    -16.14060834 </i>
    <i name="Echarged">      0.00000000 </i>
    <i name="Edipol_quadrupol">      0.00000000 </i>
    <i name="Eion">      0.00000000 </i>
   </dipole>
   <energy>
    <i name="e_fr_energy">    -14.48789786 </i>
    <i name="e_wo_entrp">    -14.48502783 </i>
    <i name="e_0_energy">    -14.48646285 </i>
   </energy>
  </scstep>
  <scstep>
   <time name="dav">    1.36    1.36</time>
   <time name="total">    1.51    1.51</time>
   <dipole>
    <v name="dipole">      0.00000000       0.00000000       0.13704154 </v>
    <i name="Tr[quadrupol]">    -16.14149449 </i>
    <i name="Echarged">      0.00000000 </i>
    <i name="Edipol_quadrupol">      0.00000000 </i>
    <i name="Eion">      0.00000000 </i>
   </dipole>
   <energy>
    <i name="e_fr_energy">    -14.48790093 </i>
    <i name="e_wo_entrp">    -14.48503015 </i>
    <i name="e_0_energy">    -14.48646554 </i>
   </energy>
  </scstep>
  <scstep>
   <time name="dav">    2.30    2.30</time>
   <time name="total">    2.45    2.45</time>
   <dipole>
    <v name="dipole">      0.00000000       0.00000000       0.13704138 </v>
    <i name="Tr[quadrupol]">    -16.14156705 </i>
    <i name="Echarged">      0.00000000 </i>
    <i name="Edipol_quadrupol">      0.00000000 </i>
    <i name="Eion">      0.00000000 </i>
   </dipole>
   <energy>
    <i name="e_fr_energy">    -14.48790109 </i>
    <i name="e_wo_entrp">    -14.48503030 </i>
    <i name="e_0_energy">    -14.48646570 </i>
   </energy>
  </scstep>
  <scstep>
   <time name="dav">    1.51    1.51</time>
   <time name="total">    1.65    1.65</time>
   <dipole>
    <v name="dipole">      0.00000000       0.00000000       0.13703732 </v>
    <i name="Tr[quadrupol]">    -16.14161827 </i>
    <i name="Echarged">      0.00000000 </i>
    <i name="Edipol_quadrupol">      0.00000000 </i>
    <i name="Eion">      0.00000000 </i>
   </dipole>
   <energy>
    <i name="e_fr_energy">    -14.48790131 </i>
    <i name="e_wo_entrp">    -14.48503051 </i>
    <i name="e_0_energy">    -14.48646591 </i>
   </energy>
  </scstep>
  <scstep>
   <time name="dav">    1.88    1.88</time>
   <time name="total">    1.96    1.96</time>
   <dipole>
    <v name="dipole">      0.00000000       0.00000000       0.13703909 </v>
    <i name="Tr[quadrupol]">    -16.14161848 </i>
    <i name="Echarged">      0.00000000 </i>
    <i name="Edipol_quadrupol">      0.00000000 </i>
    <i name="Eion">      0.00000000 </i>
   </dipole>
   <energy>
    <i name="alphaZ">      0.71290745 </i>
    <i name="ewald">    829.94124035 </i>
    <i name="hartreedc">  -1118.96963878 </i>
    <i name="XCdc">    -66.98323542 </i>
    <i name="pawpsdc">    617.26908453 </i>
    <i name="pawaedc">   -522.05222553 </i>
    <i name="eentropy">     -0.00287078 </i>
    <i name="bandstr">    -62.14484997 </i>
    <i name="atom">    307.74168684 </i>
    <i name="e_fr_energy">    -14.48790131 </i>
    <i name="e_wo_entrp">    -14.48503053 </i>
    <i name="e_0_energy">    -14.48646592 </i>
   </energy>
  </scstep>
  <structure>
   <crystal>
    <varray name="basis" >
     <v>       2.86378246       0.00000000       0.00000000 </v>
     <v>       1.43189123       2.48010836       0.00000000 </v>
     <v>       0.00000000       0.00000000      20.00000000 </v>
    </varray>
    <i name="volume">    142.04981686 </i>
    <varray name="rec_basis" >
     <v>       0.34918853      -0.20160409       0.00000000 </v>
     <v>       0.00000000       0.40320819       0.00000000 </v>
     <v>       0.00000000       0.00000000       0.05000000 </v>
    </varray>
   </crystal>
   <varray name="positions" >
    <v>       0.83333333       0.50000000       0.33808657 </v>
    <v>       0.16666667       0.83333333       0.45500000 </v>
    <v>       0.50000000       0.16666667       0.57191343 </v>
    <v>       0.50000000       0.16666667       0.66191343 </v>
   </varray>
  </structure>
  <varray name="forces" >
   <v>       0.00000000       0.00000000      -0.03470915 </v>
   <v>       0.00000000      -0.00000000       0.11780682 </v>
   <v>       0.00000000       0.00000000      -3.37572491 </v>
   <v>      -0.00000000      -0.00000000       3.29262724 </v>
  </varray>
  <varray name="stress" >
   <v>     -26.37171395       0.00000000       0.00000000 </v>
   <v>      -0.00000000     -26.37171395       0.00000000 </v>
   <v>       0.00000000       0.00000000      63.66367766 </v>
  </varray>
  <energy>
   <i name="e_fr_energy">    -14.48790131 </i>
   <i name="e_wo_entrp">    -14.48503053 </i>
   <i name="e_0_energy">    -14.48646592 </i>
  </energy>
  <time name="totalsc">   49.76   49.76</time>
 </calculation>
 <calculation>
  <scstep>
   <time name="dav">    1.15    1.15</time>
   <time name="total">    1.30    1.30</time>
   <dipole>
    <v name="dipole">      0.00000000       0.00000000       0.13704292 </v>
    <i name="Tr[quadrupol]">    -16.14163310 </i>
    <i name="Echarged">      0.00000000 </i>
    <i name="Edipol_quadrupol">      0.00000000 </i>
    <i name="Eion">      0.00000000 </i>
   </dipole>
   <energy>
    <i name="alphaZ">      0.68515274 </i>
    <i name="ewald">    790.35410951 </i>
    <i name="hartreedc">  -1082.98605357 </i>
    <i name="XCdc">    -67.22609873 </i>
    <i name="pawpsdc">    617.26952073 </i>
    <i name="pawaedc">   -522.05266134 </i>
    <i name="eentropy">     -0.00199827 </i>
    <i name="bandstr">    -58.72827369 </i>
    <i name="atom">    307.74168684 </i>
    <i name="e_fr_energy">    -14.94461578 </i>
    <i name="e_wo_entrp">    -14.94261751 </i>
    <i name="e_0_energy">    -14.94361664 </i>
   </energy>
  </scstep>
  <scstep>
   <time name="dav">    1.88    1.88</time>
   <time name="total">    2.03    2.03</time>
   <dipole>
    <v name="dipole">      0.00000000       0.00000000      -0.12296052 </v>
    <i name="Tr[quadrupol]">    -16.52902125 </i>
    <i name="Echarged">      0.00000000 </i>
    <i name="Edipol_quadrupol">      0.00000000 </i>
    <i name="Eion">      0.00000000 </i>
   </dipole>
   <energy>
    <i name="e_fr_energy">    -20.71771131 </i>
    <i name="e_wo_entrp">    -20.71405969 </i>
    <i name="e_0_energy">    -20.71588550 </i>
   </energy>
  </scstep>
  <scstep>
   <time name="dav">    1.99    1.99</time>
   <time name="total">    2.14    2.14</time>
   <dipole>
    <v name="dipole">      0.00000000       0.00000000       0.12232255 </v>
    <i name="Tr[quadrupol]">    -16.34228523 </i>
    <i name="Echarged">      0.00000000 </i>
    <i name="Edipol_quadrupol">      0.00000000 </i>
    <i name="Eion">      0.00000000 </i>
   </dipole>
   <energy>
    <i name="e_fr_energy">    -14.67806816 </i>
    <i name="e_wo_entrp">    -14.67405016 </i>
    <i name="e_0_energy">    -14.67605916 </i>
   </energy>
  </scstep>
  <scstep>
   <time name="dav">    1.34    1.34</time>
   <time name="total">    1.49    1.49</time>
   <dipole>
    <v name="dipole">      0.00000000       0.00000000       0.11163457 </v>
    <i name="Tr[quadrupol]">    -16.24854358 </i>
    <i name="Echarged">      0.00000000 </i>
    <i name="Edipol_quadrupol">      0.00000000 </i>
    <i name="Eion">      0.00000000 </i>
   </dipole>
   <energy>
    <i name="e_fr_energy">    -14.67567947 </i>
    <i name="e_wo_entrp">    -14.67303670 </i>
    <i name="e_0_energy">    -14.67435809 </i>
   </energy>
  </scstep>
  <scstep>
   <time name="dav">    2.28    2.28</time>
   <time name="total">    2.43    2.43</time>
   <dipole>
    <v name="dipole">      0.00000000       0.00000000       0.12540875 </v>
    <i name="Tr[quadrupol]">    -16.27739158 </i>
    <i name="Echarged">      0.00000000 </i>
    <i name="Edipol_quadrupol">      0.00000000 </i>
    <i name="Eion">      0.00000000 </i>
   </dipole>
   <energy>
    <i name="e_fr_energy">    -14.67927698 </i>
    <i name="e_wo_entrp">    -14.67562913 </i>
    <i name="e_0_energy">    -14.67745305 </i>
   </energy>
  </scstep>
  <scstep>
   <time name="dav">    1.86    1.87</time>
   <time name="total">    2.01    2.01</time>
   <dipole>
    <v name="dipole">      0.00000000       0.00000000       0.12082612 </v>
    <i name="Tr[quadrupol]">    -16.26261094 </i>
    <i name="Echarged">      0.00000000 </i>
    <i name="Edipol_quadrupol">      0.00000000 </i>
    <i name="Eion">      0.00000000 </i>
   </dipole>
   <energy>
    <i name="e_fr_energy">    -14.67511274 </i>
    <i name="e_wo_entrp">    -14.67198801 </i>
    <i name="e_0_energy">    -14.67355037 </i>
   </energy>
  </scstep>
  <scstep>
   <time name="dav">    1.87    1.87</time>
   <time name="total">    2.02    2.02</time>
   <dipole>
    <v name="dipole">      0.00000000       0.00000000       0.12103017 </v>
    <i name="Tr[quadrupol]">    -16.25991838 </i>
    <i name="Echarged">      0.00000000 </i>
    <i name="Edipol_quadrupol">      0.00000000 </i>
    <i name="Eion">      0.00000000 </i>
   </dipole>
   <energy>
    <i name="e_fr_energy">    -14.67510564 </i>
    <i name="e_wo_entrp">    -14.67203272 </i>
    <i name="e_0_energy">    -14.67356918 </i>
   </energy>
  </scstep>
  <scstep>
   <time name="dav">    1.77    1.77</time>
   <time name="total">    1.92    1.92</time>
   <dipole>
    <v name="dipole">      0.00000000       0.00000000       0.12277991 </v>
    <i name="Tr[quadrupol]">    -16.25973834 </i>
    <i name="Echarged">      0.00000000 </i>
    <i name="Edipol_quadrupol">      0.00000000 </i>
    <i name="Eion">      0.00000000 </i>
   </dipole>
   <energy>
    <i name="e_fr_energy">    -14.67508442 </i>
    <i name="e_wo_entrp">    -14.67195190 </i>
    <i name="e_0_energy">    -14.67351816 </i>
   </energy>
  </scstep>
  <scstep>
   <time name="dav">    1.70    1.70</time>
   <time name="total">    1.85    1.85</time>
   <dipole>
    <v name="dipole">      0.00000000       0.00000000       0.12314225 </v>
    <i name="Tr[quadrupol]">    -16.25856718 </i>
    <i name="Echarged">      0.00000000 </i>
    <i name="Edipol_quadrupol">      0.00000000 </i>
    <i name="Eion">      0.00000000 </i>
   </dipole>
   <energy>
    <i name="e_fr_energy">    -14.67508252 </i>
    <i name="e_wo_entrp">    -14.67195422 </i>
    <i name="e_0_energy">    -14.67351837 </i>
   </energy>
  </scstep>
  <scstep>
   <time name="dav">    1.48    1.48</time>
   <time name="total">    1.63    1.63</time>
   <dipole>
    <v name="dipole">      0.00000000       0.00000000       0.12398306 </v>
    <i name="Tr[quadrupol]">    -16.25659636 </i>
    <i name="Echarged">      0.00000000 </i>
    <i name="Edipol_quadrupol">      0.00000000 </i>
    <i name="Eion">      0.00000000 </i>
   </dipole>
   <energy>
    <i name="e_fr_energy">    -14.67508117 </i>
    <i name="e_wo_entrp">    -14.67195637 </i>
    <i name="e_0_energy">    -14.67351877 </i>
   </energy>
  </scstep>
  <scstep>
   <time name="dav">    1.60    1.60</time>
   <time name="total">    1.75    1.75</time>
   <dipole>
    <v name="dipole">      0.00000000       0.00000000       0.12460625 </v>
    <i name="Tr[quadrupol]">    -16.25516291 </i>
    <i name="Echarged">      0.00000000 </i>
    <i name="Edipol_quadrupol">      0.00000000 </i>
    <i name="Eion">      0.00000000 </i>
   </dipole>
   <energy>
    <i name="e_fr_energy">    -14.67508342 </i>
    <i name="e_wo_entrp">    -14.67195972 </i>
    <i name="e_0_energy">    -14.67352157 </i>
   </energy>
  </scstep>
  <scstep>
   <time name="dav">    1.37    1.37</time>
   <time name="total">    1.52    1.52</time>
   <dipole>
    <v name="dipole">      0.00000000       0.00000000       0.12566197 </v>
    <i name="Tr[quadrupol]">    -16.25238053 </i>
    <i name="Echarged">      0.00000000 </i>
    <i name="Edipol_quadrupol">      0.00000000 </i>
    <i name="Eion">      0.00000000 </i>
   </dipole>
   <energy>
    <i name="e_fr_energy">    -14.67509003 </i>
    <i name="e_wo_entrp">    -14.67197004 </i>
    <i name="e_0_energy">    -14.67353004 </i>
   </energy>
  </scstep>
  <scstep>
   <time name="dav">    1.91    1.91</time>
   <time name="total">    2.06    2.07</time>
   <dipole>
    <v name="dipole">      0.00000000       0.00000000       0.12579540 </v>
    <i name="Tr[quadrupol]">    -16.25194915 </i>
    <i name="Echarged">      0.00000000 </i>
    <i name="Edipol_quadrupol">      0.00000000 </i>
    <i name="Eion">      0.00000000 </i>
   </dipole>
   <energy>
    <i name="e_fr_energy">    -14.67509120 </i>
    <i name="e_wo_entrp">    -14.67197216 </i>
    <i name="e_0_energy">    -14.67353168 </i>
   </energy>
  </scstep>
  <scstep>
   <time name="dav">    1.62    1.62</time>
   <time name="total">    1.76    1.77</time>
   <dipole>
    <v name="dipole">      0.00000000       0.00000000       0.12600868 </v>
    <i name="Tr[quadrupol]">    -16.25106775 </i>
    <i name="Echarged">      0.00000000 </i>
    <i name="Edipol_quadrupol">      0.00000000 </i>
    <i name="Eion">      0.00000000 </i>
   </dipole>
   <energy>
    <i name="e_fr_energy">    -14.67509313 </i>
    <i name="e_wo_entrp">    -14.67197614 </i>
    <i name="e_0_energy">    -14.67353464 </i>
   </energy>
  </scstep>
  <scstep>
   <time name="dav">    1.78    1.78</time>
   <time name="total">    1.93    1.93</time>
   <dipole>
    <v name="dipole">      0.00000000       0.00000000       0.12605365 </v>
    <i name="Tr[quadrupol]">    -16.25076244 </i>
    <i name="Echarged">      0.00000000 </i>
    <i name="Edipol_quadrupol">      0.00000000 </i>
    <i name="Eion">      0.00000000 </i>
   </dipole>
   <energy>
    <i name="e_fr_energy">    -14.67509341 </i>
    <i name="e_wo_entrp">    -14.67197712 </i>
    <i name="e_0_energy">    -14.67353527 </i>
   </energy>
  </scstep>
  <scstep>
   <time name="dav">    1.55    1.55</time>
   <time name="total">    1.70    1.70</time>
   <dipole>
    <v name="dipole">      0.00000000       0.00000000       0.12607845 </v>
    <i name="Tr[quadrupol]">    -16.25043594 </i>
    <i name="Echarged">      0.00000000 </i>
    <i name="Edipol_quadrupol">      0.00000000 </i>
    <i name="Eion">      0.00000000 </i>
   </dipole>
   <energy>
    <i name="e_fr_energy">    -14.67509349 </i>
    <i name="e_wo_entrp">    -14.67197768 </i>
    <i name="e_0_energy">    -14.67353558 </i>
   </energy>
  </scstep>
  <scstep>
   <time name="dav">    1.83    1.83</time>
   <time name="total">    1.98    1.98</time>
   <dipole>
    <v name="dipole">      0.00000000       0.00000000       0.12607772 </v>
    <i name="Tr[quadrupol]">    -16.25033662 </i>
    <i name="Echarged">      0.00000000 </i>
    <i name="Edipol_quadrupol">      0.00000000 </i>
    <i name="Eion">      0.00000000 </i>
   </dipole>
   <energy>
    <i name="e_fr_energy">    -14.67509353 </i>
    <i name="e_wo_entrp">    -14.67197775 </i>
    <i name="e_0_energy">    -14.67353564 </i>
   </energy>
  </scstep>
  <scstep>
   <time name="dav">    1.51    1.51</time>
   <time name="total">    1.66    1.66</time>
   <dipole>
    <v name="dipole">      0.00000000       0.00000000       0.12607315 </v>
    <i name="Tr[quadrupol]">    -16.25008066 </i>
    <i name="Echarged">      0.00000000 </i>
    <i name="Edipol_quadrupol">      0.00000000 </i>
    <i name="Eion">      0.00000000 </i>
   </dipole>
   <energy>
    <i name="e_fr_energy">    -14.67509363 </i>
    <i name="e_wo_entrp">    -14.67197785 </i>
    <i name="e_0_energy">    -14.67353574 </i>
   </energy>
  </scstep>
  <scstep>
   <time name="dav">    1.76    1.76</time>
   <time name="total">    1.91    1.91</time>
   <dipole>
    <v name="dipole">      0.00000000       0.00000000       0.12606853 </v>
    <i name="Tr[quadrupol]">    -16.24998236 </i>
    <i name="Echarged">      0.00000000 </i>
    <i name="Edipol_quadrupol">      0.00000000 </i>
    <i name="Eion">      0.00000000 </i>
   </dipole>
   <energy>
    <i name="e_fr_energy">    -14.67509368 </i>
    <i name="e_wo_entrp">    -14.67197783 </i>
    <i name="e_0_energy">    -14.67353576 </i>
   </energy>
  </scstep>
  <scstep>
   <time name="dav">    1.50    1.50</time>
   <time name="total">    1.65    1.65</time>
   <dipole>
    <v name="dipole">      0.00000000       0.00000000       0.12606559 </v>
    <i name="Tr[quadrupol]">    -16.24991433 </i>
    <i name="Echarged">      0.00000000 </i>
    <i name="Edipol_quadrupol">      0.00000000 </i>
    <i name="Eion">      0.00000000 </i>
   </dipole>
   <energy>
    <i name="e_fr_energy">    -14.67509371 </i>
    <i name="e_wo_entrp">    -14.67197786 </i>
    <i name="e_0_energy">    -14.67353579 </i>
   </energy>
  </scstep>
  <scstep>
   <time name="dav">    2.11    2.12</time>
   <time name="total">    2.19    2.20</time>
   <dipole>
    <v name="dipole">      0.00000000       0.00000000       0.12606457 </v>
    <i name="Tr[quadrupol]">    -16.24991044 </i>
    <i name="Echarged">      0.00000000 </i>
    <i name="Edipol_quadrupol">      0.00000000 </i>
    <i name="Eion">      0.00000000 </i>
   </dipole>
   <energy>
    <i name="alphaZ">      0.75708419 </i>
    <i name="ewald">    790.35410951 </i>
    <i name="hartreedc">  -1082.25153769 </i>
    <i name="XCdc">    -67.35682951 </i>
    <i name="pawpsdc">    551.96979209 </i>
    <i name="pawaedc">   -456.69465704 </i>
    <i name="eentropy">     -0.00311585 </i>
    <i name="bandstr">    -59.19162626 </i>
    <i name="atom">    307.74168684 </i>
    <i name="e_fr_energy">    -14.67509371 </i>
    <i name="e_wo_entrp">    -14.67197786 </i>
    <i name="e_0_energy">    -14.67353579 </i>
   </energy>
  </scstep>
  <structure>
   <crystal>
    <varray name="basis" >
     <v>       2.86378246       0.00000000       0.00000000 </v>
     <v>       1.43189123       2.48010836       0.00000000 </v>
     <v>       0.00000000       0.00000000      20.00000000 </v>
    </varray>
    <i name="volume">    142.04981686 </i>
    <varray name="rec_basis" >
     <v>       0.34918853      -0.20160409       0.00000000 </v>
     <v>       0.00000000       0.40320819       0.00000000 </v>
     <v>       0.00000000       0.00000000       0.05000000 </v>
    </varray>
   </crystal>
   <varray name="positions" >
    <v>       0.83333333       0.50000000       0.33800285 </v>
    <v>       0.16666667       0.83333333       0.45528417 </v>
    <v>       0.50000000       0.16666667       0.56377073 </v>
    <v>       0.50000000       0.16666667       0.66985568 </v>
   </varray>
  </structure>
  <varray name="forces" >
   <v>      -0.00000000      -0.00000000       0.08694218 </v>
   <v>       0.00000000       0.00000000      -0.41721113 </v>
   <v>      -0.00000000      -0.00000000       1.33900381 </v>
   <v>       0.00000000       0.00000000      -1.00873486 </v>
  </varray>
  <varray name="stress" >
   <v>     -22.21687220       0.00000000       0.00000000 </v>
   <v>       0.00000000     -22.21687220       0.00000000 </v>
   <v>       0.00000000      -0.00000000     -20.07666002 </v>
  </varray>
  <energy>
   <i name="e_fr_energy">    -14.67509371 </i>
   <i name="e_wo_entrp">    -14.67197786 </i>
   <i name="e_0_energy">    -14.67353579 </i>
  </energy>
  <time name="totalsc">   40.69   40.70</time>
 </calculation>
 <calculation>
  <scstep>
   <time name="dav">    1.14    1.14</time>
   <time name="total">    1.29    1.29</time>
   <dipole>
    <v name="dipole">      0.00000000       0.00000000       0.12606338 </v>
    <i name="Tr[quadrupol]">    -16.24990369 </i>
    <i name="Echarged">      0.00000000 </i>
    <i name="Edipol_quadrupol">      0.00000000 </i>
    <i name="Eion">      0.00000000 </i>
   </dipole>
   <energy>
    <i name="alphaZ">      0.76785678 </i>
    <i name="ewald">    806.49385600 </i>
    <i name="hartreedc">  -1097.20554749 </i>
    <i name="XCdc">    -67.27388563 </i>
    <i name="pawpsdc">    551.97007548 </i>
    <i name="pawaedc">   -456.69494052 </i>
    <i name="eentropy">     -0.00162480 </i>
    <i name="bandstr">    -60.60120540 </i>
    <i name="atom">    307.74168684 </i>
    <i name="e_fr_energy">    -14.80372874 </i>
    <i name="e_wo_entrp">    -14.80210394 </i>
    <i name="e_0_energy">    -14.80291634 </i>
   </energy>
  </scstep>
  <scstep>
   <time name="dav">    2.04    2.04</time>
   <time name="total">    2.19    2.19</time>
   <dipole>
    <v name="dipole">      0.00000000       0.00000000       0.21979597 </v>
    <i name="Tr[quadrupol]">    -16.07950880 </i>
    <i name="Echarged">      0.00000000 </i>
    <i name="Edipol_quadrupol">      0.00000000 </i>
    <i name="Eion">      0.00000000 </i>
   </dipole>
   <energy>
    <i name="e_fr_energy">    -15.71300878 </i>
    <i name="e_wo_entrp">    -15.70806319 </i>
    <i name="e_0_energy">    -15.71053599 </i>
   </energy>
  </scstep>
  <scstep>
   <time name="dav">    2.11    2.11</time>
   <time name="total">    2.26    2.26</time>
   <dipole>
    <v name="dipole">      0.00000000       0.00000000       0.12032869 </v>
    <i name="Tr[quadrupol]">    -16.14580872 </i>
    <i name="Echarged">      0.00000000 </i>
    <i name="Edipol_quadrupol">      0.00000000 </i>
    <i name="Eion">      0.00000000 </i>
   </dipole>
   <energy>
    <i name="e_fr_energy">    -14.77586491 </i>
    <i name="e_wo_entrp">    -14.77392999 </i>
    <i name="e_0_energy">    -14.77489745 </i>
   </energy>
  </scstep>
  <scstep>
   <time name="dav">    1.51    1.51</time>
   <time name="total">    1.66    1.66</time>
   <dipole>
    <v name="dipole">      0.00000000       0.00000000       0.13196576 </v>
    <i name="Tr[quadrupol]">    -16.18303917 </i>
    <i name="Echarged">      0.00000000 </i>
    <i name="Edipol_quadrupol">      0.00000000 </i>
    <i name="Eion">      0.00000000 </i>
   </dipole>
   <energy>
    <i name="e_fr_energy">    -14.76026953 </i>
    <i name="e_wo_entrp">    -14.75756917 </i>
    <i name="e_0_energy">    -14.75891935 </i>
   </energy>
  </scstep>
  <scstep>
   <time name="dav">    2.31    2.31</time>
   <time name="total">    2.46    2.46</time>
   <dipole>
    <v name="dipole">      0.00000000       0.00000000       0.13392113 </v>
    <i name="Tr[quadrupol]">    -16.17929720 </i>
    <i name="Echarged">      0.00000000 </i>
    <i name="Edipol_quadrupol">      0.00000000 </i>
    <i name="Eion">      0.00000000 </i>
   </dipole>
   <energy>
    <i name="e_fr_energy">    -14.75961385 </i>
    <i name="e_wo_entrp">    -14.75595701 </i>
    <i name="e_0_energy">    -14.75778543 </i>
   </energy>
  </scstep>
  <scstep>
   <time name="dav">    1.67    1.67</time>
   <time name="total">    1.82    1.82</time>
   <dipole>
    <v name="dipole">      0.00000000       0.00000000       0.13298626 </v>
    <i name="Tr[quadrupol]">    -16.18309627 </i>
    <i name="Echarged">      0.00000000 </i>
    <i name="Edipol_quadrupol">      0.00000000 </i>
    <i name="Eion">      0.00000000 </i>
   </dipole>
   <energy>
    <i name="e_fr_energy">    -14.75961990 </i>
    <i name="e_wo_entrp">    -14.75621296 </i>
    <i name="e_0_energy">    -14.75791643 </i>
   </energy>
  </scstep>
  <scstep>
   <time name="dav">    2.09    2.09</time>
   <time name="total">    2.24    2.24</time>
   <dipole>
    <v name="dipole">      0.00000000       0.00000000       0.13300674 </v>
    <i name="Tr[quadrupol]">    -16.18151659 </i>
    <i name="Echarged">      0.00000000 </i>
    <i name="Edipol_quadrupol">      0.00000000 </i>
    <i name="Eion">      0.00000000 </i>
   </dipole>
   <energy>
    <i name="e_fr_energy">    -14.75962697 </i>
    <i name="e_wo_entrp">    -14.75615412 </i>
    <i name="e_0_energy">    -14.75789054 </i>
   </energy>
  </scstep>
  <scstep>
   <time name="dav">    1.50    1.50</time>
   <time name="total">    1.65    1.65</time>
   <dipole>
    <v name="dipole">      0.00000000       0.00000000       0.13279842 </v>
    <i name="Tr[quadrupol]">    -16.18254051 </i>
    <i name="Echarged">      0.00000000 </i>
    <i name="Edipol_quadrupol">      0.00000000 </i>
    <i name="Eion">      0.00000000 </i>
   </dipole>
   <energy>
    <i name="e_fr_energy">    -14.75964139 </i>
    <i name="e_wo_entrp">    -14.75617996 </i>
    <i name="e_0_energy">    -14.75791067 </i>
   </energy>
  </scstep>
  <scstep>
   <time name="dav">    1.82    1.82</time>
   <time name="total">    1.98    1.98</time>
   <dipole>
    <v name="dipole">      0.00000000       0.00000000       0.13264518 </v>
    <i name="Tr[quadrupol]">    -16.18308391 </i>
    <i name="Echarged">      0.00000000 </i>
    <i name="Edipol_quadrupol">      0.00000000 </i>
    <i name="Eion">      0.00000000 </i>
   </dipole>
   <energy>
    <i name="e_fr_energy">    -14.75964639 </i>
    <i name="e_wo_entrp">    -14.75619669 </i>
    <i name="e_0_energy">    -14.75792154 </i>
   </energy>
  </scstep>
  <scstep>
   <time name="dav">    1.55    1.55</time>
   <time name="total">    1.71    1.71</time>
   <dipole>
    <v name="dipole">      0.00000000       0.00000000       0.13254036 </v>
    <i name="Tr[quadrupol]">    -16.18350796 </i>
    <i name="Echarged">      0.00000000 </i>
    <i name="Edipol_quadrupol">      0.00000000 </i>
    <i name="Eion">      0.00000000 </i>
   </dipole>
   <energy>
    <i name="e_fr_energy">    -14.75965002 </i>
    <i name="e_wo_entrp">    -14.75619734 </i>
    <i name="e_0_energy">    -14.75792368 </i>
   </energy>
  </scstep>
  <scstep>
   <time name="dav">    1.52    1.52</time>
   <time name="total">    1.68    1.69</time>
   <dipole>
    <v name="dipole">      0.00000000       0.00000000       0.13244172 </v>
    <i name="Tr[quadrupol]">    -16.18398911 </i>
    <i name="Echarged">      0.00000000 </i>
    <i name="Edipol_quadrupol">      0.00000000 </i>
    <i name="Eion">      0.00000000 </i>
   </dipole>
   <energy>
    <i name="e_fr_energy">    -14.75965318 </i>
    <i name="e_wo_entrp">    -14.75619769 </i>
    <i name="e_0_energy">    -14.75792544 </i>
   </energy>
  </scstep>
  <scstep>
   <time name="dav">    1.52    1.52</time>
   <time name="total">    1.68    1.68</time>
   <dipole>
    <v name="dipole">      0.00000000       0.00000000       0.13236546 </v>
    <i name="Tr[quadrupol]">    -16.18441479 </i>
    <i name="Echarged">      0.00000000 </i>
    <i name="Edipol_quadrupol">      0.00000000 </i>
    <i name="Eion">      0.00000000 </i>
   </dipole>
   <energy>
    <i name="e_fr_energy">    -14.75965512 </i>
    <i name="e_wo_entrp">    -14.75619746 </i>
    <i name="e_0_energy">    -14.75792629 </i>
   </energy>
  </scstep>
  <scstep>
   <time name="dav">    1.38    1.38</time>
   <time name="total">    1.54    1.54</time>
   <dipole>
    <v name="dipole">      0.00000000       0.00000000       0.13227925 </v>
    <i name="Tr[quadrupol]">    -16.18494193 </i>
    <i name="Echarged">      0.00000000 </i>
    <i name="Edipol_quadrupol">      0.00000000 </i>
    <i name="Eion">      0.00000000 </i>
   </dipole>
   <energy>
    <i name="e_fr_energy">    -14.75965666 </i>
    <i name="e_wo_entrp">    -14.75619645 </i>
    <i name="e_0_energy">    -14.75792656 </i>
   </energy>
  </scstep>
  <scstep>
   <time name="dav">    1.88    1.88</time>
   <time name="total">    2.05    2.05</time>
   <dipole>
    <v name="dipole">      0.00000000       0.00000000       0.13226356 </v>
    <i name="Tr[quadrupol]">    -16.18510371 </i>
    <i name="Echarged">      0.00000000 </i>
    <i name="Edipol_quadrupol">      0.00000000 </i>
    <i name="Eion">      0.00000000 </i>
   </dipole>
   <energy>
    <i name="e_fr_energy">    -14.75965686 </i>
    <i name="e_wo_entrp">    -14.75619628 </i>
    <i name="e_0_energy">    -14.75792657 </i>
   </energy>
  </scstep>
  <scstep>
   <time name="dav">    1.69    1.69</time>
   <time name="total">    1.86    1.86</time>
   <dipole>
    <v name="dipole">      0.00000000       0.00000000       0.13226110 </v>
    <i name="Tr[quadrupol]">    -16.18525434 </i>
    <i name="Echarged">      0.00000000 </i>
    <i name="Edipol_quadrupol">      0.00000000 </i>
    <i name="Eion">      0.00000000 </i>
   </dipole>
   <energy>
    <i name="e_fr_energy">    -14.75965691 </i>
    <i name="e_wo_entrp">    -14.75619624 </i>
    <i name="e_0_energy">    -14.75792657 </i>
   </energy>
  </scstep>
  <scstep>
   <time name="dav">    2.04    2.04</time>
   <time name="total">    2.12    2.12</time>
   <dipole>
    <v name="dipole">      0.00000000       0.00000000       0.13226398 </v>
    <i name="Tr[quadrupol]">    -16.18532979 </i>
    <i name="Echarged">      0.00000000 </i>
    <i name="Edipol_quadrupol">      0.00000000 </i>
    <i name="Eion">      0.00000000 </i>
   </dipole>
   <energy>
    <i name="alphaZ">      0.72777808 </i>
    <i name="ewald">    806.49385600 </i>
    <i name="hartreedc">  -1097.30913543 </i>
    <i name="XCdc">    -67.22174686 </i>
    <i name="pawpsdc">    568.69273859 </i>
    <i name="pawaedc">   -473.43266543 </i>
    <i name="eentropy">     -0.00346076 </i>
    <i name="bandstr">    -60.44870794 </i>
    <i name="atom">    307.74168684 </i>
    <i name="e_fr_energy">    -14.75965691 </i>
    <i name="e_wo_entrp">    -14.75619615 </i>
    <i name="e_0_energy">    -14.75792653 </i>
   </energy>
  </scstep>
  <structure>
   <crystal>
    <varray name="basis" >
     <v>       2.86378246       0.00000000       0.00000000 </v>
     <v>       1.43189123       2.48010836       0.00000000 </v>
     <v>       0.00000000       0.00000000      20.00000000 </v>
    </varray>
    <i name="volume">    142.04981686 </i>
    <varray name="rec_basis" >
     <v>       0.34918853      -0.20160409       0.00000000 </v>
     <v>       0.00000000       0.40320819       0.00000000 </v>
     <v>       0.00000000       0.00000000       0.05000000 </v>
    </varray>
   </crystal>
   <varray name="positions" >
    <v>       0.83333333       0.50000000       0.33803818 </v>
    <v>       0.16666667       0.83333333       0.45516425 </v>
    <v>       0.50000000       0.16666667       0.56720701 </v>
    <v>       0.50000000       0.16666667       0.66650400 </v>
   </varray>
  </structure>
  <varray name="forces" >
   <v>       0.00000000       0.00000000       0.02503281 </v>
   <v>      -0.00000000      -0.00000000      -0.15150148 </v>
   <v>       0.00000000      -0.00000000       0.03908170 </v>
   <v>      -0.00000000      -0.00000000       0.08738697 </v>
  </varray>
  <varray name="stress" >
   <v>     -24.26930398       0.00000000       0.00000000 </v>
   <v>       0.00000000     -24.26930398       0.00000000 </v>
   <v>       0.00000000       0.00000000       2.74020900 </v>
  </varray>
  <energy>
   <i name="e_fr_energy">    -14.75965691 </i>
   <i name="e_wo_entrp">    -14.75619615 </i>
   <i name="e_0_energy">    -14.75792653 </i>
  </energy>
  <time name="totalsc">   31.91   31.92</time>
 </calculation>
 <calculation>
  <scstep>
   <time name="dav">    1.10    1.10</time>
   <time name="total">    1.26    1.26</time>
   <dipole>
    <v name="dipole">      0.00000000       0.00000000       0.13226946 </v>
    <i name="Tr[quadrupol]">    -16.18540665 </i>
    <i name="Echarged">      0.00000000 </i>
    <i name="Edipol_quadrupol">      0.00000000 </i>
    <i name="Eion">      0.00000000 </i>
   </dipole>
   <energy>
    <i name="alphaZ">      0.72754981 </i>
    <i name="ewald">    806.21184942 </i>
    <i name="hartreedc">  -1097.05221598 </i>
    <i name="XCdc">    -67.22332454 </i>
    <i name="pawpsdc">    568.69196582 </i>
    <i name="pawaedc">   -473.43189211 </i>
    <i name="eentropy">     -0.00360694 </i>
    <i name="bandstr">    -60.42170445 </i>
    <i name="atom">    307.74168684 </i>
    <i name="e_fr_energy">    -14.75969215 </i>
    <i name="e_wo_entrp">    -14.75608521 </i>
    <i name="e_0_energy">    -14.75788868 </i>
   </energy>
  </scstep>
  <scstep>
   <time name="dav">    1.81    1.81</time>
   <time name="total">    1.97    1.97</time>
   <dipole>
    <v name="dipole">      0.00000000       0.00000000       0.13005184 </v>
    <i name="Tr[quadrupol]">    -16.18926177 </i>
    <i name="Echarged">      0.00000000 </i>
    <i name="Edipol_quadrupol">      0.00000000 </i>
    <i name="Eion">      0.00000000 </i>
   </dipole>
   <energy>
    <i name="e_fr_energy">    -14.76025054 </i>
    <i name="e_wo_entrp">    -14.75729487 </i>
    <i name="e_0_energy">    -14.75877270 </i>
   </energy>
  </scstep>
  <scstep>
   <time name="dav">    1.85    1.85</time>
   <time name="total">    2.01    2.01</time>
   <dipole>
    <v name="dipole">      0.00000000       0.00000000       0.13230415 </v>
    <i name="Tr[quadrupol]">    -16.18718047 </i>
    <i name="Echarged">      0.00000000 </i>
    <i name="Edipol_quadrupol">      0.00000000 </i>
    <i name="Eion">      0.00000000 </i>
   </dipole>
   <energy>
    <i name="e_fr_energy">    -14.75966685 </i>
    <i name="e_wo_entrp">    -14.75611031 </i>
    <i name="e_0_energy">    -14.75788858 </i>
   </energy>
  </scstep>
  <scstep>
   <time name="dav">    1.30    1.30</time>
   <time name="total">    1.46    1.46</time>
   <dipole>
    <v name="dipole">      0.00000000       0.00000000       0.13210388 </v>
    <i name="Tr[quadrupol]">    -16.18644171 </i>
    <i name="Echarged">      0.00000000 </i>
    <i name="Edipol_quadrupol">      0.00000000 </i>
    <i name="Eion">      0.00000000 </i>
   </dipole>
   <energy>
    <i name="e_fr_energy">    -14.75967209 </i>
    <i name="e_wo_entrp">    -14.75615021 </i>
    <i name="e_0_energy">    -14.75791115 </i>
   </energy>
  </scstep>
  <scstep>
   <time name="dav">    1.49    1.49</time>
   <time name="total">    1.66    1.66</time>
   <dipole>
    <v name="dipole">      0.00000000       0.00000000       0.13215486 </v>
    <i name="Tr[quadrupol]">    -16.18648756 </i>
    <i name="Echarged">      0.00000000 </i>
    <i name="Edipol_quadrupol">      0.00000000 </i>
    <i name="Eion">      0.00000000 </i>
   </dipole>
   <energy>
    <i name="e_fr_energy">    -14.75967347 </i>
    <i name="e_wo_entrp">    -14.75614919 </i>
    <i name="e_0_energy">    -14.75791133 </i>
   </energy>
  </scstep>
  <scstep>
   <time name="dav">    1.53    1.53</time>
   <time name="total">    1.70    1.70</time>
   <dipole>
    <v name="dipole">      0.00000000       0.00000000       0.13214683 </v>
    <i name="Tr[quadrupol]">    -16.18650672 </i>
    <i name="Echarged">      0.00000000 </i>
    <i name="Edipol_quadrupol">      0.00000000 </i>
    <i name="Eion">      0.00000000 </i>
   </dipole>
   <energy>
    <i name="e_fr_energy">    -14.75967356 </i>
    <i name="e_wo_entrp">    -14.75615379 </i>
    <i name="e_0_energy">    -14.75791368 </i>
   </energy>
  </scstep>
  <scstep>
   <time name="dav">    1.90    1.90</time>
   <time name="total">    2.07    2.07</time>
   <dipole>
    <v name="dipole">      0.00000000       0.00000000       0.13215321 </v>
    <i name="Tr[quadrupol]">    -16.18649697 </i>
    <i name="Echarged">      0.00000000 </i>
    <i name="Edipol_quadrupol">      0.00000000 </i>
    <i name="Eion">      0.00000000 </i>
   </dipole>
   <energy>
    <i name="e_fr_energy">    -14.75967360 </i>
    <i name="e_wo_entrp">    -14.75615356 </i>
    <i name="e_0_energy">    -14.75791358 </i>
   </energy>
  </scstep>
  <scstep>
   <time name="dav">    1.69    1.69</time>
   <time name="total">    1.85    1.85</time>
   <dipole>
    <v name="dipole">      0.00000000       0.00000000       0.13215706 </v>
    <i name="Tr[quadrupol]">    -16.18648588 </i>
    <i name="Echarged">      0.00000000 </i>
    <i name="Edipol_quadrupol">      0.00000000 </i>
    <i name="Eion">      0.00000000 </i>
   </dipole>
   <energy>
    <i name="e_fr_energy">    -14.75967362 </i>
    <i name="e_wo_entrp">    -14.75615359 </i>
    <i name="e_0_energy">    -14.75791360 </i>
   </energy>
  </scstep>
  <scstep>
   <time name="dav">    1.50    1.50</time>
   <time name="total">    1.67    1.67</time>
   <dipole>
    <v name="dipole">      0.00000000       0.00000000       0.13216220 </v>
    <i name="Tr[quadrupol]">    -16.18646787 </i>
    <i name="Echarged">      0.00000000 </i>
    <i name="Edipol_quadrupol">      0.00000000 </i>
    <i name="Eion">      0.00000000 </i>
   </dipole>
   <energy>
    <i name="e_fr_energy">    -14.75967364 </i>
    <i name="e_wo_entrp">    -14.75615359 </i>
    <i name="e_0_energy">    -14.75791361 </i>
   </energy>
  </scstep>
  <scstep>
   <time name="dav">    1.48    1.48</time>
   <time name="total">    1.64    1.64</time>
   <dipole>
    <v name="dipole">      0.00000000       0.00000000       0.13216605 </v>
    <i name="Tr[quadrupol]">    -16.18645340 </i>
    <i name="Echarged">      0.00000000 </i>
    <i name="Edipol_quadrupol">      0.00000000 </i>
    <i name="Eion">      0.00000000 </i>
   </dipole>
   <energy>
    <i name="e_fr_energy">    -14.75967366 </i>
    <i name="e_wo_entrp">    -14.75615373 </i>
    <i name="e_0_energy">    -14.75791369 </i>
   </energy>
  </scstep>
  <scstep>
   <time name="dav">    1.38    1.38</time>
   <time name="total">    1.54    1.54</time>
   <dipole>
    <v name="dipole">      0.00000000       0.00000000       0.13217027 </v>
    <i name="Tr[quadrupol]">    -16.18643696 </i>
    <i name="Echarged">      0.00000000 </i>
    <i name="Edipol_quadrupol">      0.00000000 </i>
    <i name="Eion">      0.00000000 </i>
   </dipole>
   <energy>
    <i name="e_fr_energy">    -14.75967367 </i>
    <i name="e_wo_entrp">    -14.75615384 </i>
    <i name="e_0_energy">    -14.75791375 </i>
   </energy>
  </scstep>
  <scstep>
   <time name="dav">    1.38    1.38</time>
   <time name="total">    1.54    1.54</time>
   <dipole>
    <v name="dipole">      0.00000000       0.00000000       0.13217428 </v>
    <i name="Tr[quadrupol]">    -16.18641942 </i>
    <i name="Echarged">      0.00000000 </i>
    <i name="Edipol_quadrupol">      0.00000000 </i>
    <i name="Eion">      0.00000000 </i>
   </dipole>
   <energy>
    <i name="e_fr_energy">    -14.75967369 </i>
    <i name="e_wo_entrp">    -14.75615394 </i>
    <i name="e_0_energy">    -14.75791381 </i>
   </energy>
  </scstep>
  <scstep>
   <time name="dav">    1.63    1.63</time>
   <time name="total">    1.71    1.71</time>
   <dipole>
    <v name="dipole">      0.00000000       0.00000000       0.13217678 </v>
    <i name="Tr[quadrupol]">    -16.18640722 </i>
    <i name="Echarged">      0.00000000 </i>
    <i name="Edipol_quadrupol">      0.00000000 </i>
    <i name="Eion">      0.00000000 </i>
   </dipole>
   <energy>
    <i name="alphaZ">      0.72814938 </i>
    <i name="ewald">    806.21184942 </i>
    <i name="hartreedc">  -1097.04753045 </i>
    <i name="XCdc">    -67.22430947 </i>
    <i name="pawpsdc">    568.30030689 </i>
    <i name="pawaedc">   -473.03988043 </i>
    <i name="eentropy">     -0.00351970 </i>
    <i name="bandstr">    -60.42642617 </i>
    <i name="atom">    307.74168684 </i>
    <i name="e_fr_energy">    -14.75967369 </i>
    <i name="e_wo_entrp">    -14.75615399 </i>
    <i name="e_0_energy">    -14.75791384 </i>
   </energy>
  </scstep>
  <structure>
   <crystal>
    <varray name="basis" >
     <v>       2.86378246       0.00000000       0.00000000 </v>
     <v>       1.43189123       2.48010836       0.00000000 </v>
     <v>       0.00000000       0.00000000      20.00000000 </v>
    </varray>
    <i name="volume">    142.04981686 </i>
    <varray name="rec_basis" >
     <v>       0.34918853      -0.20160409       0.00000000 </v>
     <v>       0.00000000       0.40320819       0.00000000 </v>
     <v>       0.00000000       0.00000000       0.05000000 </v>
    </varray>
   </crystal>
   <varray name="positions" >
    <v>       0.83333333       0.50000000       0.33803758 </v>
    <v>       0.16666667       0.83333333       0.45516629 </v>
    <v>       0.50000000       0.16666667       0.56714835 </v>
    <v>       0.50000000       0.16666667       0.66656121 </v>
   </varray>
  </structure>
  <varray name="forces" >
   <v>      -0.00000000      -0.00000000       0.02644682 </v>
   <v>       0.00000000       0.00000000      -0.15563162 </v>
   <v>       0.00000000       0.00000000       0.06674173 </v>
   <v>      -0.00000000      -0.00000000       0.06244307 </v>
  </varray>
  <varray name="stress" >
   <v>     -24.22803928       0.00000000       0.00000000 </v>
   <v>       0.00000000     -24.22803928       0.00000000 </v>
   <v>       0.00000000       0.00000000       2.21390115 </v>
  </varray>
  <energy>
   <i name="e_fr_energy">    -14.75967369 </i>
   <i name="e_wo_entrp">    -14.75615399 </i>
   <i name="e_0_energy">    -14.75791384 </i>
  </energy>
  <time name="totalsc">   23.78   23.79</time>
 </calculation>
 <calculation>
  <scstep>
   <time name="dav">    1.10    1.10</time>
   <time name="total">    1.26    1.26</time>
   <dipole>
    <v name="dipole">      0.00000000       0.00000000       0.13217702 </v>
    <i name="Tr[quadrupol]">    -16.18640348 </i>
    <i name="Echarged">      0.00000000 </i>
    <i name="Edipol_quadrupol">      0.00000000 </i>
    <i name="Eion">      0.00000000 </i>
   </dipole>
   <energy>
    <i name="alphaZ">      0.72819049 </i>
    <i name="ewald">    806.27422904 </i>
    <i name="hartreedc">  -1097.10441136 </i>
    <i name="XCdc">    -67.22396062 </i>
    <i name="pawpsdc">    568.30036447 </i>
    <i name="pawaedc">   -473.03993801 </i>
    <i name="eentropy">     -0.00348671 </i>
    <i name="bandstr">    -60.43235019 </i>
    <i name="atom">    307.74168684 </i>
    <i name="e_fr_energy">    -14.75967606 </i>
    <i name="e_wo_entrp">    -14.75618935 </i>
    <i name="e_0_energy">    -14.75793271 </i>
   </energy>
  </scstep>
  <scstep>
   <time name="dav">    1.36    1.36</time>
   <time name="total">    1.52    1.52</time>
   <dipole>
    <v name="dipole">      0.00000000       0.00000000       0.13266450 </v>
    <i name="Tr[quadrupol]">    -16.18555423 </i>
    <i name="Echarged">      0.00000000 </i>
    <i name="Edipol_quadrupol">      0.00000000 </i>
    <i name="Eion">      0.00000000 </i>
   </dipole>
   <energy>
    <i name="e_fr_energy">    -14.75970316 </i>
    <i name="e_wo_entrp">    -14.75608003 </i>
    <i name="e_0_energy">    -14.75789159 </i>
   </energy>
  </scstep>
  <scstep>
   <time name="dav">    1.44    1.44</time>
   <time name="total">    1.60    1.60</time>
   <dipole>
    <v name="dipole">      0.00000000       0.00000000       0.13216705 </v>
    <i name="Tr[quadrupol]">    -16.18602094 </i>
    <i name="Echarged">      0.00000000 </i>
    <i name="Edipol_quadrupol">      0.00000000 </i>
    <i name="Eion">      0.00000000 </i>
   </dipole>
   <energy>
    <i name="e_fr_energy">    -14.75967407 </i>
    <i name="e_wo_entrp">    -14.75617642 </i>
    <i name="e_0_energy">    -14.75792524 </i>
   </energy>
  </scstep>
  <scstep>
   <time name="dav">    1.43    1.43</time>
   <time name="total">    1.59    1.59</time>
   <dipole>
    <v name="dipole">      0.00000000       0.00000000       0.13221283 </v>
    <i name="Tr[quadrupol]">    -16.18618126 </i>
    <i name="Echarged">      0.00000000 </i>
    <i name="Edipol_quadrupol">      0.00000000 </i>
    <i name="Eion">      0.00000000 </i>
   </dipole>
   <energy>
    <i name="e_fr_energy">    -14.75967499 </i>
    <i name="e_wo_entrp">    -14.75616914 </i>
    <i name="e_0_energy">    -14.75792207 </i>
   </energy>
  </scstep>
  <scstep>
   <time name="dav">    1.62    1.62</time>
   <time name="total">    1.78    1.78</time>
   <dipole>
    <v name="dipole">      0.00000000       0.00000000       0.13220433 </v>
    <i name="Tr[quadrupol]">    -16.18616384 </i>
    <i name="Echarged">      0.00000000 </i>
    <i name="Edipol_quadrupol">      0.00000000 </i>
    <i name="Eion">      0.00000000 </i>
   </dipole>
   <energy>
    <i name="e_fr_energy">    -14.75967520 </i>
    <i name="e_wo_entrp">    -14.75616900 </i>
    <i name="e_0_energy">    -14.75792210 </i>
   </energy>
  </scstep>
  <scstep>
   <time name="dav">    1.84    1.84</time>
   <time name="total">    2.00    2.00</time>
   <dipole>
    <v name="dipole">      0.00000000       0.00000000       0.13220448 </v>
    <i name="Tr[quadrupol]">    -16.18616389 </i>
    <i name="Echarged">      0.00000000 </i>
    <i name="Edipol_quadrupol">      0.00000000 </i>
    <i name="Eion">      0.00000000 </i>
   </dipole>
   <energy>
    <i name="e_fr_energy">    -14.75967523 </i>
    <i name="e_wo_entrp">    -14.75616850 </i>
    <i name="e_0_energy">    -14.75792187 </i>
   </energy>
  </scstep>
  <scstep>
   <time name="dav">    1.70    1.70</time>
   <time name="total">    1.78    1.78</time>
   <dipole>
    <v name="dipole">      0.00000000       0.00000000       0.13220333 </v>
    <i name="Tr[quadrupol]">    -16.18616530 </i>
    <i name="Echarged">      0.00000000 </i>
    <i name="Edipol_quadrupol">      0.00000000 </i>
    <i name="Eion">      0.00000000 </i>
   </dipole>
   <energy>
    <i name="alphaZ">      0.72802028 </i>
    <i name="ewald">    806.27422904 </i>
    <i name="hartreedc">  -1097.10533939 </i>
    <i name="XCdc">    -67.22374218 </i>
    <i name="pawpsdc">    568.38814757 </i>
    <i name="pawaedc">   -473.12779988 </i>
    <i name="eentropy">     -0.00350675 </i>
    <i name="bandstr">    -60.43137076 </i>
    <i name="atom">    307.74168684 </i>
    <i name="e_fr_energy">    -14.75967523 </i>
    <i name="e_wo_entrp">    -14.75616848 </i>
    <i name="e_0_energy">    -14.75792186 </i>
   </energy>
  </scstep>
  <structure>
   <crystal>
    <varray name="basis" >
     <v>       2.86378246       0.00000000       0.00000000 </v>
     <v>       1.43189123       2.48010836       0.00000000 </v>
     <v>       0.00000000       0.00000000      20.00000000 </v>
    </varray>
    <i name="volume">    142.04981686 </i>
    <varray name="rec_basis" >
     <v>       0.34918853      -0.20160409       0.00000000 </v>
     <v>       0.00000000       0.40320819       0.00000000 </v>
     <v>       0.00000000       0.00000000       0.05000000 </v>
    </varray>
   </crystal>
   <varray name="positions" >
    <v>       0.83333333       0.50000000       0.33803771 </v>
    <v>       0.16666667       0.83333333       0.45516584 </v>
    <v>       0.50000000       0.16666667       0.56716133 </v>
    <v>       0.50000000       0.16666667       0.66654855 </v>
   </varray>
  </structure>
  <varray name="forces" >
   <v>       0.00000000       0.00000000       0.02613083 </v>
   <v>      -0.00000000      -0.00000000      -0.15471280 </v>
   <v>       0.00000000       0.00000000       0.06066707 </v>
   <v>      -0.00000000      -0.00000000       0.06791490 </v>
  </varray>
  <varray name="stress" >
   <v>     -24.23683799       0.00000000       0.00000000 </v>
   <v>       0.00000000     -24.23683799      -0.00000000 </v>
   <v>       0.00000000       0.00000000       2.32953068 </v>
  </varray>
  <energy>
   <i name="e_fr_energy">    -14.75967523 </i>
   <i name="e_wo_entrp">    -14.75616848 </i>
   <i name="e_0_energy">    -14.75792186 </i>
  </energy>
  <time name="totalsc">   13.23   13.23</time>
 </calculation>
 <calculation>
  <scstep>
   <time name="dav">    1.10    1.10</time>
   <time name="total">    1.26    1.26</time>
   <dipole>
    <v name="dipole">      0.00000000       0.00000000       0.13220177 </v>
    <i name="Tr[quadrupol]">    -16.18616821 </i>
    <i name="Echarged">      0.00000000 </i>
    <i name="Edipol_quadrupol">      0.00000000 </i>
    <i name="Eion">      0.00000000 </i>
   </dipole>
   <energy>
    <i name="alphaZ">      0.72748793 </i>
    <i name="ewald">    804.97902561 </i>
    <i name="hartreedc">  -1095.84338644 </i>
    <i name="XCdc">    -67.22666261 </i>
    <i name="pawpsdc">    568.38707017 </i>
    <i name="pawaedc">   -473.12672150 </i>
    <i name="eentropy">     -0.00369774 </i>
    <i name="bandstr">    -60.39577183 </i>
    <i name="atom">    307.74168684 </i>
    <i name="e_fr_energy">    -14.76096957 </i>
    <i name="e_wo_entrp">    -14.75727183 </i>
    <i name="e_0_energy">    -14.75912070 </i>
   </energy>
  </scstep>
  <scstep>
   <time name="dav">    1.73    1.73</time>
   <time name="total">    1.89    1.89</time>
   <dipole>
    <v name="dipole">      0.00000000       0.00000000       0.12904277 </v>
    <i name="Tr[quadrupol]">    -16.18224098 </i>
    <i name="Echarged">      0.00000000 </i>
    <i name="Edipol_quadrupol">      0.00000000 </i>
    <i name="Eion">      0.00000000 </i>
   </dipole>
   <energy>
    <i name="e_fr_energy">    -14.76163035 </i>
    <i name="e_wo_entrp">    -14.75864146 </i>
    <i name="e_0_energy">    -14.76013591 </i>
   </energy>
  </scstep>
  <scstep>
   <time name="dav">    1.87    1.87</time>
   <time name="total">    2.03    2.03</time>
   <dipole>
    <v name="dipole">      0.00000000       0.00000000       0.13184273 </v>
    <i name="Tr[quadrupol]">    -16.18101062 </i>
    <i name="Echarged">      0.00000000 </i>
    <i name="Edipol_quadrupol">      0.00000000 </i>
    <i name="Eion">      0.00000000 </i>
   </dipole>
   <energy>
    <i name="e_fr_energy">    -14.76090007 </i>
    <i name="e_wo_entrp">    -14.75720169 </i>
    <i name="e_0_energy">    -14.75905088 </i>
   </energy>
  </scstep>
  <scstep>
   <time name="dav">    1.48    1.48</time>
   <time name="total">    1.64    1.64</time>
   <dipole>
    <v name="dipole">      0.00000000       0.00000000       0.13188418 </v>
    <i name="Tr[quadrupol]">    -16.18441377 </i>
    <i name="Echarged">      0.00000000 </i>
    <i name="Edipol_quadrupol">      0.00000000 </i>
    <i name="Eion">      0.00000000 </i>
   </dipole>
   <energy>
    <i name="e_fr_energy">    -14.76088960 </i>
    <i name="e_wo_entrp">    -14.75724276 </i>
    <i name="e_0_energy">    -14.75906618 </i>
   </energy>
  </scstep>
  <scstep>
   <time name="dav">    1.60    1.60</time>
   <time name="total">    1.76    1.76</time>
   <dipole>
    <v name="dipole">      0.00000000       0.00000000       0.13172724 </v>
    <i name="Tr[quadrupol]">    -16.18357562 </i>
    <i name="Echarged">      0.00000000 </i>
    <i name="Edipol_quadrupol">      0.00000000 </i>
    <i name="Eion">      0.00000000 </i>
   </dipole>
   <energy>
    <i name="e_fr_energy">    -14.76088825 </i>
    <i name="e_wo_entrp">    -14.75727295 </i>
    <i name="e_0_energy">    -14.75908060 </i>
   </energy>
  </scstep>
  <scstep>
   <time name="dav">    1.79    1.79</time>
   <time name="total">    1.95    1.95</time>
   <dipole>
    <v name="dipole">      0.00000000       0.00000000       0.13175321 </v>
    <i name="Tr[quadrupol]">    -16.18349660 </i>
    <i name="Echarged">      0.00000000 </i>
    <i name="Edipol_quadrupol">      0.00000000 </i>
    <i name="Eion">      0.00000000 </i>
   </dipole>
   <energy>
    <i name="e_fr_energy">    -14.76089024 </i>
    <i name="e_wo_entrp">    -14.75727950 </i>
    <i name="e_0_energy">    -14.75908487 </i>
   </energy>
  </scstep>
  <scstep>
   <time name="dav">    1.94    1.94</time>
   <time name="total">    2.10    2.10</time>
   <dipole>
    <v name="dipole">      0.00000000       0.00000000       0.13178037 </v>
    <i name="Tr[quadrupol]">    -16.18342071 </i>
    <i name="Echarged">      0.00000000 </i>
    <i name="Edipol_quadrupol">      0.00000000 </i>
    <i name="Eion">      0.00000000 </i>
   </dipole>
   <energy>
    <i name="e_fr_energy">    -14.76089045 </i>
    <i name="e_wo_entrp">    -14.75727716 </i>
    <i name="e_0_energy">    -14.75908381 </i>
   </energy>
  </scstep>
  <scstep>
   <time name="dav">    1.54    1.54</time>
   <time name="total">    1.70    1.70</time>
   <dipole>
    <v name="dipole">      0.00000000       0.00000000       0.13179317 </v>
    <i name="Tr[quadrupol]">    -16.18336810 </i>
    <i name="Echarged">      0.00000000 </i>
    <i name="Edipol_quadrupol">      0.00000000 </i>
    <i name="Eion">      0.00000000 </i>
   </dipole>
   <energy>
    <i name="e_fr_energy">    -14.76089058 </i>
    <i name="e_wo_entrp">    -14.75727694 </i>
    <i name="e_0_energy">    -14.75908376 </i>
   </energy>
  </scstep>
  <scstep>
   <time name="dav">    1.53    1.53</time>
   <time name="total">    1.69    1.69</time>
   <dipole>
    <v name="dipole">      0.00000000       0.00000000       0.13180726 </v>
    <i name="Tr[quadrupol]">    -16.18333155 </i>
    <i name="Echarged">      0.00000000 </i>
    <i name="Edipol_quadrupol">      0.00000000 </i>
    <i name="Eion">      0.00000000 </i>
   </dipole>
   <energy>
    <i name="e_fr_energy">    -14.76089071 </i>
    <i name="e_wo_entrp">    -14.75727714 </i>
    <i name="e_0_energy">    -14.75908393 </i>
   </energy>
  </scstep>
  <scstep>
   <time name="dav">    1.53    1.53</time>
   <time name="total">    1.69    1.69</time>
   <dipole>
    <v name="dipole">      0.00000000       0.00000000       0.13181560 </v>
    <i name="Tr[quadrupol]">    -16.18329893 </i>
    <i name="Echarged">      0.00000000 </i>
    <i name="Edipol_quadrupol">      0.00000000 </i>
    <i name="Eion">      0.00000000 </i>
   </dipole>
   <energy>
    <i name="e_fr_energy">    -14.76089077 </i>
    <i name="e_wo_entrp">    -14.75727746 </i>
    <i name="e_0_energy">    -14.75908412 </i>
   </energy>
  </scstep>
  <scstep>
   <time name="dav">    1.37    1.37</time>
   <time name="total">    1.53    1.53</time>
   <dipole>
    <v name="dipole">      0.00000000       0.00000000       0.13183234 </v>
    <i name="Tr[quadrupol]">    -16.18323308 </i>
    <i name="Echarged">      0.00000000 </i>
    <i name="Edipol_quadrupol">      0.00000000 </i>
    <i name="Eion">      0.00000000 </i>
   </dipole>
   <energy>
    <i name="e_fr_energy">    -14.76089085 </i>
    <i name="e_wo_entrp">    -14.75727785 </i>
    <i name="e_0_energy">    -14.75908435 </i>
   </energy>
  </scstep>
  <scstep>
   <time name="dav">    1.72    1.72</time>
   <time name="total">    1.88    1.88</time>
   <dipole>
    <v name="dipole">      0.00000000       0.00000000       0.13183698 </v>
    <i name="Tr[quadrupol]">    -16.18321424 </i>
    <i name="Echarged">      0.00000000 </i>
    <i name="Edipol_quadrupol">      0.00000000 </i>
    <i name="Eion">      0.00000000 </i>
   </dipole>
   <energy>
    <i name="e_fr_energy">    -14.76089087 </i>
    <i name="e_wo_entrp">    -14.75727798 </i>
    <i name="e_0_energy">    -14.75908442 </i>
   </energy>
  </scstep>
  <scstep>
   <time name="dav">    1.35    1.35</time>
   <time name="total">    1.51    1.51</time>
   <dipole>
    <v name="dipole">      0.00000000       0.00000000       0.13184072 </v>
    <i name="Tr[quadrupol]">    -16.18319656 </i>
    <i name="Echarged">      0.00000000 </i>
    <i name="Edipol_quadrupol">      0.00000000 </i>
    <i name="Eion">      0.00000000 </i>
   </dipole>
   <energy>
    <i name="e_fr_energy">    -14.76089088 </i>
    <i name="e_wo_entrp">    -14.75727807 </i>
    <i name="e_0_energy">    -14.75908447 </i>
   </energy>
  </scstep>
  <scstep>
