 running on   32 total cores
 distrk:  each k-point on   32 cores,    1 groups
 distr:  one band on    1 cores,   32 groups
 vasp.6.2.1 16May21 (build Feb 21 2024 21:23:56) complex                        
  
 POSCAR found type information on POSCAR AlC 
 POSCAR found :  2 types and       4 ions
 scaLAPACK will be used
 -----------------------------------------------------------------------------
|                                                                             |
|           W    W    AA    RRRRR   N    N  II  N    N   GGGG   !!!           |
|           W    W   A  A   R    R  NN   N  II  NN   N  G    G  !!!           |
|           W    W  A    A  R    R  N N  N  II  N N  N  G       !!!           |
|           W WW W  AAAAAA  RRRRR   N  N N  II  N  N N  G  GGG   !            |
|           WW  WW  A    A  R   R   N   NN  II  N   NN  G    G                |
|           W    W  A    A  R    R  N    N  II  N    N   GGGG   !!!           |
|                                                                             |
|     For optimal performance we recommend to set                             |
|       NCORE = 2 up to number-of-cores-per-socket                            |
|     NCORE specifies how many cores store one orbital (NPAR=cpu/NCORE).      |
|     This setting can greatly improve the performance of VASP for DFT.       |
|     The default, NCORE=1 might be grossly inefficient on modern             |
|     multi-core architectures or massively parallel machines. Do your        |
|     own testing! More info at https://www.vasp.at/wiki/index.php/NCORE      |
|     Unfortunately you need to use the default for GW and RPA                |
|     calculations (for HF NCORE is supported but not extensively tested      |
|     yet).                                                                   |
|                                                                             |
 -----------------------------------------------------------------------------

 LDA part: xc-table for Pade appr. of Perdew
 POSCAR, INCAR and KPOINTS ok, starting setup
 FFT: planning ...
 WAVECAR not read
 WARNING: random wavefunctions but no delay for mixing, default for NELMDL
 entering main loop
       N       E                     dE             d eps       ncg     rms          rms(c)
DAV:   1     0.289608017518E+01    0.28961E+01   -0.44107E+03  2688   0.232E+02
DAV:   2    -0.151584436069E+02   -0.18055E+02   -0.17853E+02  4096   0.302E+01
DAV:   3    -0.154729325544E+02   -0.31449E+00   -0.31405E+00  3776   0.502E+00
DAV:   4    -0.154756676301E+02   -0.27351E-02   -0.27350E-02  4928   0.426E-01
DAV:   5    -0.154756685749E+02   -0.94477E-06   -0.94485E-06  3648   0.949E-03    0.527E+00
DAV:   6    -0.284901095790E+02   -0.13014E+02   -0.19333E+02  4160   0.128E+01    0.125E+01
DAV:   7    -0.146392146939E+02    0.13851E+02   -0.11485E+02  4800   0.102E+01    0.200E+00
DAV:   8    -0.145221852900E+02    0.11703E+00   -0.13341E+00  3808   0.149E+00    0.983E-01
DAV:   9    -0.144944058765E+02    0.27779E-01   -0.13760E-01  4608   0.571E-01    0.298E-01
DAV:  10    -0.144906321850E+02    0.37737E-02   -0.74743E-03  4896   0.173E-01    0.152E-01
DAV:  11    -0.144887780219E+02    0.18542E-02   -0.21536E-03  4416   0.740E-02    0.113E-01
DAV:  12    -0.144879822465E+02    0.79578E-03   -0.96466E-04  4768   0.363E-02    0.653E-02
DAV:  13    -0.144875792781E+02    0.40297E-03   -0.69015E-04  3872   0.329E-02    0.456E-02
DAV:  14    -0.144875258012E+02    0.53477E-04   -0.59313E-04  3488   0.328E-02    0.245E-02
DAV:  15    -0.144876306949E+02   -0.10489E-03   -0.14818E-04  3360   0.174E-02    0.117E-02
DAV:  16    -0.144877760469E+02   -0.14535E-03   -0.18048E-04  3968   0.155E-02    0.672E-03
DAV:  17    -0.144878061764E+02   -0.30129E-04   -0.26175E-06  3776   0.408E-03    0.522E-03
DAV:  18    -0.144878642817E+02   -0.58105E-04   -0.55614E-06  3616   0.301E-03    0.282E-03
DAV:  19    -0.144878761969E+02   -0.11915E-04   -0.43475E-07  3776   0.900E-04    0.230E-03
DAV:  20    -0.144878958884E+02   -0.19692E-04   -0.29537E-06  3360   0.198E-03    0.134E-03
DAV:  21    -0.144878978630E+02   -0.19745E-05   -0.24378E-07  4320   0.586E-04    0.775E-04
DAV:  22    -0.144879009310E+02   -0.30680E-05   -0.69317E-07  3168   0.891E-04    0.141E-04
DAV:  23    -0.144879010925E+02   -0.16158E-06   -0.56421E-09  5088   0.181E-04    0.878E-05
DAV:  24    -0.144879013079E+02   -0.21533E-06   -0.19204E-08  3488   0.123E-04    0.274E-05
DAV:  25    -0.144879013092E+02   -0.12938E-08   -0.20268E-10  4224   0.266E-05
   1 F= -.14487901E+02 E0= -.14486466E+02  d E =-.144879E+02
 curvature:   0.00 expect dE= 0.000E+00 dE for cont linesearch  0.000E+00
 trial: gam= 0.00000 g(F)=  0.107E+01 g(S)=  0.000E+00 ort = 0.000E+00 (trialstep = 0.100E+01)
 search vector abs. value=  0.107E+01
 bond charge predicted
       N       E                     dE             d eps       ncg     rms          rms(c)
DAV:   1    -0.149446157768E+02   -0.45671E+00   -0.63686E+01  2688   0.200E+01    0.304E+00
DAV:   2    -0.207177113143E+02   -0.57731E+01   -0.77055E+01  4288   0.903E+00    0.114E+01
DAV:   3    -0.146780681582E+02    0.60396E+01   -0.60576E+01  4512   0.703E+00    0.887E-01
DAV:   4    -0.146756794688E+02    0.23887E-02   -0.20966E-01  3104   0.759E-01    0.546E-01
DAV:   5    -0.146792769785E+02   -0.35975E-02   -0.10780E-01  5056   0.423E-01    0.420E-01
DAV:   6    -0.146751127441E+02    0.41642E-02   -0.43426E-02  4256   0.246E-01    0.919E-02
DAV:   7    -0.146751056405E+02    0.71036E-05   -0.72150E-04  4256   0.708E-02    0.484E-02
DAV:   8    -0.146750844187E+02    0.21222E-04   -0.42985E-04  4032   0.273E-02    0.170E-02
DAV:   9    -0.146750825194E+02    0.18993E-05   -0.70332E-06  3872   0.612E-03    0.134E-02
DAV:  10    -0.146750811741E+02    0.13453E-05   -0.94816E-06  3424   0.410E-03    0.851E-03
DAV:  11    -0.146750834176E+02   -0.22435E-05   -0.29992E-06  3680   0.256E-03    0.622E-03
DAV:  12    -0.146750900321E+02   -0.66145E-05   -0.90392E-06  3200   0.380E-03    0.227E-03
DAV:  13    -0.146750912029E+02   -0.11708E-05   -0.35004E-07  4320   0.107E-03    0.159E-03
DAV:  14    -0.146750931342E+02   -0.19312E-05   -0.90168E-07  3712   0.112E-03    0.641E-04
DAV:  15    -0.146750934146E+02   -0.28045E-06   -0.11331E-07  4032   0.443E-04    0.244E-04
DAV:  16    -0.146750934886E+02   -0.73999E-07   -0.59020E-08  3584   0.282E-04    0.130E-04
DAV:  17    -0.146750935252E+02   -0.36600E-07   -0.15394E-09  4160   0.873E-05    0.894E-05
DAV:  18    -0.146750936269E+02   -0.10171E-06   -0.73785E-09  3520   0.710E-05    0.803E-05
DAV:  19    -0.146750936805E+02   -0.53568E-07   -0.40243E-09  4000   0.473E-05    0.522E-05
DAV:  20    -0.146750937125E+02   -0.32004E-07   -0.23603E-09  3488   0.399E-05    0.164E-05
DAV:  21    -0.146750937143E+02   -0.17589E-08   -0.79111E-11  4736   0.106E-05
   2 F= -.14675094E+02 E0= -.14673536E+02  d E =-.187192E+00
 trial-energy change:   -0.187192  1 .order   -0.346342   -1.073495    0.380811
 step:   0.5780(harm=  0.7381)  dis= 0.09181  next Energy=   -14.767407 (dE=-0.280E+00)
 bond charge predicted
       N       E                     dE             d eps       ncg     rms          rms(c)
DAV:   1    -0.148037287382E+02   -0.12864E+00   -0.11169E+01  2688   0.837E+00    0.126E+00
DAV:   2    -0.157130087827E+02   -0.90928E+00   -0.11782E+01  4608   0.321E+00    0.456E+00
DAV:   3    -0.147758649065E+02    0.93714E+00   -0.10690E+01  4736   0.319E+00    0.612E-01
DAV:   4    -0.147602695334E+02    0.15595E-01   -0.12722E-01  3520   0.475E-01    0.296E-01
DAV:   5    -0.147596138549E+02    0.65568E-03   -0.13768E-02  5120   0.166E-01    0.574E-02
DAV:   6    -0.147596198988E+02   -0.60439E-05   -0.10261E-03  3840   0.552E-02    0.208E-02
DAV:   7    -0.147596269670E+02   -0.70682E-05   -0.87121E-05  4672   0.152E-02    0.132E-02
DAV:   8    -0.147596413878E+02   -0.14421E-04   -0.76843E-06  3456   0.594E-03    0.216E-03
DAV:   9    -0.147596463907E+02   -0.50029E-05   -0.23632E-06  4256   0.203E-03    0.255E-03
DAV:  10    -0.147596500197E+02   -0.36290E-05   -0.22143E-07  3680   0.745E-04    0.172E-03
DAV:  11    -0.147596531829E+02   -0.31632E-05   -0.22167E-07  3648   0.538E-04    0.104E-03
DAV:  12    -0.147596551205E+02   -0.19376E-05   -0.12409E-07  3616   0.402E-04    0.564E-04
DAV:  13    -0.147596566624E+02   -0.15419E-05   -0.14267E-07  3328   0.411E-04    0.700E-05
DAV:  14    -0.147596568600E+02   -0.19760E-06   -0.57169E-09  4384   0.145E-04    0.397E-05
DAV:  15    -0.147596569065E+02   -0.46551E-07   -0.13362E-09  3968   0.500E-05    0.348E-05
DAV:  16    -0.147596569109E+02   -0.43782E-08   -0.37655E-10  4704   0.221E-05
   3 F= -.14759657E+02 E0= -.14757927E+02  d E =-.271756E+00
 curvature:  -0.23 expect dE=-0.365E-03 dE for cont linesearch -0.941E-05
 ZBRENT: interpolating
 opt :   0.5852  next Energy=   -14.759681 (dE=-0.272E+00)
 bond charge predicted
       N       E                     dE             d eps       ncg     rms          rms(c)
DAV:   1    -0.147596921471E+02   -0.35241E-04   -0.33967E-03  2688   0.147E-01    0.264E-02
DAV:   2    -0.147602505356E+02   -0.55839E-03   -0.61269E-03  4256   0.754E-02    0.118E-01
DAV:   3    -0.147596668473E+02    0.58369E-03   -0.53053E-03  4320   0.710E-02    0.977E-03
DAV:   4    -0.147596720926E+02   -0.52453E-05   -0.42308E-05  3136   0.947E-03    0.412E-03
DAV:   5    -0.147596734690E+02   -0.13764E-05   -0.14306E-06  3552   0.283E-03    0.153E-03
DAV:   6    -0.147596735650E+02   -0.95934E-07   -0.34323E-07  3616   0.872E-04    0.386E-04
DAV:   7    -0.147596736021E+02   -0.37076E-07   -0.10081E-08  4384   0.288E-04    0.153E-04
DAV:   8    -0.147596736205E+02   -0.18459E-07   -0.72927E-10  4000   0.602E-05    0.995E-05
DAV:   9    -0.147596736407E+02   -0.20230E-07   -0.32352E-10  3616   0.253E-05    0.880E-05
DAV:  10    -0.147596736573E+02   -0.16518E-07   -0.43548E-10  3552   0.248E-05    0.573E-05
DAV:  11    -0.147596736746E+02   -0.17294E-07   -0.36247E-10  3328   0.236E-05    0.344E-05
DAV:  12    -0.147596736859E+02   -0.11370E-07   -0.33385E-10  3328   0.227E-05    0.162E-05
DAV:  13    -0.147596736884E+02   -0.24550E-08   -0.11908E-10  3840   0.142E-05
   4 F= -.14759674E+02 E0= -.14757914E+02  d E =-.271772E+00
 curvature:  -0.58 expect dE=-0.939E-03 dE for cont linesearch -0.192E-05
 ZBRENT: interpolating
 opt :   0.5836  next Energy=   -14.759675 (dE=-0.272E+00)
 bond charge predicted
       N       E                     dE             d eps       ncg     rms          rms(c)
DAV:   1    -0.147596760635E+02   -0.23776E-05   -0.16623E-04  2688   0.326E-02    0.582E-03
DAV:   2    -0.147597031622E+02   -0.27099E-04   -0.29709E-04  3296   0.166E-02    0.268E-02
DAV:   3    -0.147596740675E+02    0.29095E-04   -0.26167E-04  3456   0.157E-02    0.229E-03
DAV:   4    -0.147596749919E+02   -0.92447E-06   -0.21964E-06  3456   0.220E-03    0.953E-04
DAV:   5    -0.147596752040E+02   -0.21208E-06   -0.66828E-08  3808   0.638E-04    0.290E-04
DAV:   6    -0.147596752302E+02   -0.26167E-07   -0.65159E-09  4288   0.165E-04    0.100E-04
DAV:   7    -0.147596752326E+02   -0.24477E-08   -0.36462E-10  4000   0.481E-05
   5 F= -.14759675E+02 E0= -.14757922E+02  d E =-.271774E+00
 curvature:  -0.46 expect dE=-0.723E-03 dE for cont linesearch -0.949E-10
 trial: gam= 0.00149 g(F)=  0.159E-02 g(S)=  0.000E+00 ort =-0.150E-04 (trialstep = 0.917E+00)
 search vector abs. value=  0.159E-02
 bond charge predicted
       N       E                     dE             d eps       ncg     rms          rms(c)
DAV:   1    -0.147609695699E+02   -0.12943E-02   -0.32640E-02  2688   0.463E-01    0.421E-02
DAV:   2    -0.147616303509E+02   -0.66078E-03   -0.92960E-03  4096   0.113E-01    0.121E-01
DAV:   3    -0.147609000669E+02    0.73028E-03   -0.77357E-03  4384   0.885E-02    0.351E-02
DAV:   4    -0.147608895976E+02    0.10469E-04   -0.17066E-04  3584   0.206E-02    0.150E-02
DAV:   5    -0.147608882464E+02    0.13512E-05   -0.40816E-05  3808   0.997E-03    0.660E-03
DAV:   6    -0.147608902379E+02   -0.19915E-05   -0.13909E-06  4224   0.312E-03    0.160E-03
DAV:   7    -0.147608904542E+02   -0.21629E-06   -0.30463E-07  4544   0.820E-04    0.464E-04
DAV:   8    -0.147608905774E+02   -0.12324E-06   -0.16141E-08  3712   0.305E-04    0.323E-04
DAV:   9    -0.147608907092E+02   -0.13180E-06   -0.47193E-09  3680   0.947E-05    0.181E-04
DAV:  10    -0.147608907735E+02   -0.64326E-07   -0.23135E-09  3648   0.546E-05    0.129E-04
DAV:  11    -0.147608908531E+02   -0.79547E-07   -0.78224E-09  3296   0.889E-05    0.581E-05
DAV:  12    -0.147608908664E+02   -0.13317E-07   -0.72719E-10  4032   0.316E-05    0.361E-05
DAV:  13    -0.147608908794E+02   -0.12988E-07   -0.46980E-10  3264   0.245E-05    0.217E-05
