unknown system                          
           1
     2.863782    0.000000    0.000000
     1.431891    2.480108    0.000000
     0.000000    0.000000   20.000000
   Al   C 
     3     1
Direct configuration=     1
   0.83333333  0.50000000  0.33808657
   0.16666667  0.83333333  0.45500000
   0.50000000  0.16666667  0.57191343
   0.50000000  0.16666667  0.66191343
Direct configuration=     2
   0.83333333  0.50000000  0.33800285
   0.16666667  0.83333333  0.45528417
   0.50000000  0.16666667  0.56377073
   0.50000000  0.16666667  0.66985568
Direct configuration=     3
   0.83333333  0.50000000  0.33803818
   0.16666667  0.83333333  0.45516425
   0.50000000  0.16666667  0.56720701
   0.50000000  0.16666667  0.66650400
Direct configuration=     4
   0.83333333  0.50000000  0.33803758
   0.16666667  0.83333333  0.45516629
   0.50000000  0.16666667  0.56714835
   0.50000000  0.16666667  0.66656121
Direct configuration=     5
   0.83333333  0.50000000  0.33803771
   0.16666667  0.83333333  0.45516584
   0.50000000  0.16666667  0.56716133
   0.50000000  0.16666667  0.66654855
