  73  73   0   0
  0.3358953E+02  0.1159820E-08  0.1159820E-08  0.2104820E-08  0.5000000E-15
  1.000000000000000E-004
  CAR 
 unknown system                          
      2.36803180    -37.91735820  301     -0.83801382      1.00000000
    -37.917  0.0000E+00  0.0000E+00  0.0000E+00  0.0000E+00
    -37.783  0.0000E+00  0.0000E+00  0.0000E+00  0.0000E+00
    -37.649  0.0000E+00  0.0000E+00  0.0000E+00  0.0000E+00
    -37.515  0.0000E+00  0.0000E+00  0.0000E+00  0.0000E+00
    -37.380  0.0000E+00  0.0000E+00  0.0000E+00  0.0000E+00
    -37.246  0.0000E+00  0.0000E+00  0.0000E+00  0.0000E+00
    -37.112  0.0000E+00  0.0000E+00  0.0000E+00  0.0000E+00
    -36.977  0.0000E+00  0.0000E+00  0.0000E+00  0.0000E+00
    -36.843  0.0000E+00  0.0000E+00  0.0000E+00  0.0000E+00
    -36.709  0.0000E+00  0.0000E+00  0.0000E+00  0.0000E+00
    -36.575  0.0000E+00  0.0000E+00  0.0000E+00  0.0000E+00
    -36.440  0.0000E+00  0.0000E+00  0.0000E+00  0.0000E+00
    -36.306  0.6377E-11  0.1843E-11  0.8564E-12  0.2475E-12
    -36.172  0.2052E-03  0.1200E-03  0.2755E-04  0.1611E-04
    -36.037  0.4641E-01  0.4397E-01  0.6260E-02  0.5921E-02
    -35.903  0.9317E-01  0.9541E-01  0.1877E-01  0.1873E-01
    -35.769  0.1978E+00  0.1971E+00  0.4534E-01  0.4521E-01
    -35.635  0.3471E-01  0.3569E-01  0.5000E-01  0.5000E-01
    -35.500  0.5439E-05  0.5876E-05  0.5000E-01  0.5000E-01
    -35.366  0.2673E-14  0.3081E-14  0.5000E-01  0.5000E-01
    -35.232  0.0000E+00  0.0000E+00  0.5000E-01  0.5000E-01
    -35.097  0.0000E+00  0.0000E+00  0.5000E-01  0.5000E-01
    -34.963  0.0000E+00  0.0000E+00  0.5000E-01  0.5000E-01
    -34.829  0.0000E+00  0.0000E+00  0.5000E-01  0.5000E-01
    -34.695  0.0000E+00  0.0000E+00  0.5000E-01  0.5000E-01
    -34.560  0.1563E-10  0.0000E+00  0.5000E-01  0.5000E-01
    -34.426  0.2849E-03  0.0000E+00  0.5004E-01  0.5000E-01
    -34.292  0.2875E-01  0.0000E+00  0.5390E-01  0.5000E-01
    -34.157  0.2059E-01  0.1495E-13  0.5666E-01  0.5000E-01
    -34.023  0.9010E-02  0.1172E-04  0.5787E-01  0.5000E-01
    -33.889  0.1583E-01  0.1967E-01  0.6000E-01  0.5264E-01
    -33.755  0.7092E-05  0.2983E-01  0.6000E-01  0.5665E-01
    -33.620  0.5448E-14  0.1882E-02  0.6000E-01  0.5690E-01
    -33.486  0.0000E+00  0.2283E-01  0.6000E-01  0.5997E-01
    -33.352  0.0000E+00  0.2496E-03  0.6000E-01  0.6000E-01
    -33.217  0.0000E+00  0.1144E-10  0.6000E-01  0.6000E-01
    -33.083  0.0000E+00  0.0000E+00  0.6000E-01  0.6000E-01
    -32.949  0.0000E+00  0.0000E+00  0.6000E-01  0.6000E-01
    -32.815  0.0000E+00  0.0000E+00  0.6000E-01  0.6000E-01
    -32.680  0.0000E+00  0.0000E+00  0.6000E-01  0.6000E-01
    -32.546  0.0000E+00  0.0000E+00  0.6000E-01  0.6000E-01
    -32.412  0.0000E+00  0.0000E+00  0.6000E-01  0.6000E-01
    -32.277  0.0000E+00  0.0000E+00  0.6000E-01  0.6000E-01
    -32.143  0.0000E+00  0.0000E+00  0.6000E-01  0.6000E-01
    -32.009  0.0000E+00  0.0000E+00  0.6000E-01  0.6000E-01
    -31.875  0.0000E+00  0.0000E+00  0.6000E-01  0.6000E-01
    -31.740  0.0000E+00  0.0000E+00  0.6000E-01  0.6000E-01
    -31.606  0.0000E+00  0.0000E+00  0.6000E-01  0.6000E-01
    -31.472  0.0000E+00  0.0000E+00  0.6000E-01  0.6000E-01
    -31.337  0.0000E+00  0.0000E+00  0.6000E-01  0.6000E-01
    -31.203  0.0000E+00  0.0000E+00  0.6000E-01  0.6000E-01
    -31.069  0.0000E+00  0.0000E+00  0.6000E-01  0.6000E-01
    -30.935  0.0000E+00  0.0000E+00  0.6000E-01  0.6000E-01
    -30.800  0.0000E+00  0.0000E+00  0.6000E-01  0.6000E-01
    -30.666  0.0000E+00  0.0000E+00  0.6000E-01  0.6000E-01
    -30.532  0.0000E+00  0.0000E+00  0.6000E-01  0.6000E-01
    -30.397  0.0000E+00  0.0000E+00  0.6000E-01  0.6000E-01
    -30.263  0.0000E+00  0.0000E+00  0.6000E-01  0.6000E-01
    -30.129  0.0000E+00  0.0000E+00  0.6000E-01  0.6000E-01
    -29.995  0.0000E+00  0.0000E+00  0.6000E-01  0.6000E-01
    -29.860  0.0000E+00  0.0000E+00  0.6000E-01  0.6000E-01
    -29.726  0.0000E+00  0.0000E+00  0.6000E-01  0.6000E-01
    -29.592  0.0000E+00  0.0000E+00  0.6000E-01  0.6000E-01
    -29.457  0.0000E+00  0.0000E+00  0.6000E-01  0.6000E-01
    -29.323  0.0000E+00  0.0000E+00  0.6000E-01  0.6000E-01
    -29.189  0.0000E+00  0.0000E+00  0.6000E-01  0.6000E-01
    -29.055  0.0000E+00  0.0000E+00  0.6000E-01  0.6000E-01
    -28.920  0.0000E+00  0.0000E+00  0.6000E-01  0.6000E-01
    -28.786  0.0000E+00  0.0000E+00  0.6000E-01  0.6000E-01
    -28.652  0.0000E+00  0.0000E+00  0.6000E-01  0.6000E-01
    -28.517  0.0000E+00  0.0000E+00  0.6000E-01  0.6000E-01
    -28.383  0.0000E+00  0.0000E+00  0.6000E-01  0.6000E-01
    -28.249  0.0000E+00  0.0000E+00  0.6000E-01  0.6000E-01
    -28.115  0.0000E+00  0.0000E+00  0.6000E-01  0.6000E-01
    -27.980  0.0000E+00  0.0000E+00  0.6000E-01  0.6000E-01
    -27.846  0.0000E+00  0.0000E+00  0.6000E-01  0.6000E-01
    -27.712  0.0000E+00  0.0000E+00  0.6000E-01  0.6000E-01
    -27.577  0.0000E+00  0.0000E+00  0.6000E-01  0.6000E-01
    -27.443  0.0000E+00  0.0000E+00  0.6000E-01  0.6000E-01
    -27.309  0.0000E+00  0.0000E+00  0.6000E-01  0.6000E-01
    -27.175  0.0000E+00  0.0000E+00  0.6000E-01  0.6000E-01
    -27.040  0.0000E+00  0.0000E+00  0.6000E-01  0.6000E-01
    -26.906  0.0000E+00  0.0000E+00  0.6000E-01  0.6000E-01
    -26.772  0.0000E+00  0.0000E+00  0.6000E-01  0.6000E-01
    -26.637  0.0000E+00  0.0000E+00  0.6000E-01  0.6000E-01
    -26.503  0.0000E+00  0.0000E+00  0.6000E-01  0.6000E-01
    -26.369  0.0000E+00  0.0000E+00  0.6000E-01  0.6000E-01
    -26.235  0.0000E+00  0.0000E+00  0.6000E-01  0.6000E-01
    -26.100  0.0000E+00  0.0000E+00  0.6000E-01  0.6000E-01
    -25.966  0.0000E+00  0.0000E+00  0.6000E-01  0.6000E-01
    -25.832  0.0000E+00  0.0000E+00  0.6000E-01  0.6000E-01
    -25.697  0.0000E+00  0.0000E+00  0.6000E-01  0.6000E-01
    -25.563  0.0000E+00  0.0000E+00  0.6000E-01  0.6000E-01
    -25.429  0.0000E+00  0.0000E+00  0.6000E-01  0.6000E-01
    -25.295  0.0000E+00  0.0000E+00  0.6000E-01  0.6000E-01
    -25.160  0.0000E+00  0.0000E+00  0.6000E-01  0.6000E-01
    -25.026  0.0000E+00  0.0000E+00  0.6000E-01  0.6000E-01
    -24.892  0.0000E+00  0.0000E+00  0.6000E-01  0.6000E-01
    -24.757  0.0000E+00  0.0000E+00  0.6000E-01  0.6000E-01
    -24.623  0.0000E+00  0.0000E+00  0.6000E-01  0.6000E-01
    -24.489  0.0000E+00  0.0000E+00  0.6000E-01  0.6000E-01
    -24.355  0.0000E+00  0.0000E+00  0.6000E-01  0.6000E-01
    -24.220  0.0000E+00  0.0000E+00  0.6000E-01  0.6000E-01
    -24.086  0.0000E+00  0.0000E+00  0.6000E-01  0.6000E-01
    -23.952  0.0000E+00  0.0000E+00  0.6000E-01  0.6000E-01
    -23.817  0.0000E+00  0.0000E+00  0.6000E-01  0.6000E-01
    -23.683  0.0000E+00  0.0000E+00  0.6000E-01  0.6000E-01
    -23.549  0.0000E+00  0.0000E+00  0.6000E-01  0.6000E-01
    -23.415  0.0000E+00  0.0000E+00  0.6000E-01  0.6000E-01
    -23.280  0.0000E+00  0.0000E+00  0.6000E-01  0.6000E-01
    -23.146  0.0000E+00  0.0000E+00  0.6000E-01  0.6000E-01
    -23.012  0.0000E+00  0.0000E+00  0.6000E-01  0.6000E-01
    -22.877  0.0000E+00  0.0000E+00  0.6000E-01  0.6000E-01
    -22.743  0.0000E+00  0.0000E+00  0.6000E-01  0.6000E-01
    -22.609  0.0000E+00  0.0000E+00  0.6000E-01  0.6000E-01
    -22.475  0.0000E+00  0.0000E+00  0.6000E-01  0.6000E-01
    -22.340  0.0000E+00  0.0000E+00  0.6000E-01  0.6000E-01
    -22.206  0.0000E+00  0.0000E+00  0.6000E-01  0.6000E-01
    -22.072  0.0000E+00  0.0000E+00  0.6000E-01  0.6000E-01
    -21.937  0.0000E+00  0.0000E+00  0.6000E-01  0.6000E-01
    -21.803  0.0000E+00  0.0000E+00  0.6000E-01  0.6000E-01
    -21.669  0.0000E+00  0.0000E+00  0.6000E-01  0.6000E-01
    -21.535  0.0000E+00  0.0000E+00  0.6000E-01  0.6000E-01
    -21.400  0.0000E+00  0.0000E+00  0.6000E-01  0.6000E-01
    -21.266  0.3520E-13  0.3841E-10  0.6000E-01  0.6000E-01
    -21.132  0.1784E-04  0.4135E-03  0.6000E-01  0.6006E-01
    -20.997  0.2230E-01  0.2871E-01  0.6300E-01  0.6391E-01
    -20.863  0.6261E-01  0.6070E-01  0.7141E-01  0.7206E-01
    -20.729  0.7807E-01  0.7603E-01  0.8189E-01  0.8227E-01
    -20.595  0.8496E-01  0.7590E-01  0.9330E-01  0.9246E-01
    -20.460  0.1021E+00  0.9955E-01  0.1070E+00  0.1058E+00
    -20.326  0.1165E+00  0.1140E+00  0.1227E+00  0.1211E+00
    -20.192  0.5633E-01  0.5576E-01  0.1302E+00  0.1286E+00
    -20.058  0.3607E-01  0.3620E-01  0.1351E+00  0.1335E+00
    -19.923  0.8743E-01  0.8237E-01  0.1468E+00  0.1446E+00
    -19.789  0.2564E-01  0.4463E-01  0.1502E+00  0.1505E+00
    -19.655  0.7591E-01  0.6462E-01  0.1604E+00  0.1592E+00
    -19.520  0.5486E-01  0.5284E-01  0.1678E+00  0.1663E+00
    -19.386  0.7717E-01  0.4344E-01  0.1782E+00  0.1722E+00
    -19.252  0.5593E-01  0.3666E-01  0.1857E+00  0.1771E+00
    -19.118  0.2652E-01  0.5633E-01  0.1892E+00  0.1846E+00
    -18.983  0.5663E-02  0.3887E-01  0.1900E+00  0.1899E+00
    -18.849  0.1714E-01  0.1077E-02  0.1923E+00  0.1900E+00
    -18.715  0.7670E-02  0.2905E-06  0.1933E+00  0.1900E+00
    -18.580  0.1059E-01  0.1036E-01  0.1948E+00  0.1914E+00
    -18.446  0.1025E+00  0.1060E+00  0.2085E+00  0.2056E+00
    -18.312  0.1393E+00  0.1410E+00  0.2272E+00  0.2246E+00
    -18.178  0.2029E+00  0.2051E+00  0.2545E+00  0.2521E+00
    -18.043  0.1278E+00  0.1250E+00  0.2716E+00  0.2689E+00
    -17.909  0.7084E-01  0.8165E-01  0.2811E+00  0.2799E+00
    -17.775  0.3543E-01  0.2546E-01  0.2859E+00  0.2833E+00
    -17.640  0.5427E-01  0.4694E-01  0.2932E+00  0.2896E+00
    -17.506  0.2923E-01  0.2871E-01  0.2971E+00  0.2934E+00
    -17.372  0.2167E-01  0.3695E-01  0.3000E+00  0.2984E+00
    -17.238  0.2683E-01  0.1207E-01  0.3036E+00  0.3000E+00
    -17.103  0.2274E-01  0.2336E-01  0.3067E+00  0.3032E+00
    -16.969  0.3256E-01  0.3888E-01  0.3111E+00  0.3084E+00
    -16.835  0.5269E-01  0.5730E-01  0.3181E+00  0.3161E+00
    -16.700  0.5904E-01  0.3791E-01  0.3261E+00  0.3212E+00
    -16.566  0.2792E-01  0.4008E-01  0.3298E+00  0.3265E+00
    -16.432  0.2554E-01  0.1769E-01  0.3332E+00  0.3289E+00
    -16.298  0.7069E-03  0.3218E-01  0.3333E+00  0.3332E+00
    -16.163  0.1465E-01  0.1037E-02  0.3353E+00  0.3334E+00
    -16.029  0.3337E-01  0.4456E-01  0.3398E+00  0.3394E+00
    -15.895  0.5761E-01  0.4035E-01  0.3475E+00  0.3448E+00
    -15.760  0.9342E-01  0.7314E-01  0.3601E+00  0.3546E+00
    -15.626  0.7788E-01  0.8078E-01  0.3705E+00  0.3654E+00
    -15.492  0.5254E-01  0.6893E-01  0.3776E+00  0.3747E+00
    -15.358  0.3265E-01  0.4372E-01  0.3820E+00  0.3806E+00
    -15.223  0.8984E-01  0.7411E-01  0.3940E+00  0.3905E+00
    -15.089  0.4059E-01  0.4163E-01  0.3995E+00  0.3961E+00
    -14.955  0.3901E-02  0.2847E-01  0.4000E+00  0.3999E+00
    -14.820  0.1909E-07  0.4348E-03  0.4000E+00  0.4000E+00
    -14.686  0.0000E+00  0.4346E-10  0.4000E+00  0.4000E+00
    -14.552  0.0000E+00  0.0000E+00  0.4000E+00  0.4000E+00
    -14.418  0.0000E+00  0.0000E+00  0.4000E+00  0.4000E+00
    -14.283  0.0000E+00  0.0000E+00  0.4000E+00  0.4000E+00
    -14.149  0.0000E+00  0.0000E+00  0.4000E+00  0.4000E+00
    -14.015  0.0000E+00  0.0000E+00  0.4000E+00  0.4000E+00
    -13.880  0.0000E+00  0.0000E+00  0.4000E+00  0.4000E+00
    -13.746  0.0000E+00  0.0000E+00  0.4000E+00  0.4000E+00
    -13.612  0.0000E+00  0.0000E+00  0.4000E+00  0.4000E+00
    -13.478  0.0000E+00  0.0000E+00  0.4000E+00  0.4000E+00
    -13.343  0.0000E+00  0.0000E+00  0.4000E+00  0.4000E+00
    -13.209  0.0000E+00  0.0000E+00  0.4000E+00  0.4000E+00
    -13.075  0.0000E+00  0.0000E+00  0.4000E+00  0.4000E+00
    -12.940  0.0000E+00  0.0000E+00  0.4000E+00  0.4000E+00
    -12.806  0.0000E+00  0.0000E+00  0.4000E+00  0.4000E+00
    -12.672  0.0000E+00  0.0000E+00  0.4000E+00  0.4000E+00
    -12.538  0.0000E+00  0.0000E+00  0.4000E+00  0.4000E+00
    -12.403  0.0000E+00  0.0000E+00  0.4000E+00  0.4000E+00
    -12.269  0.0000E+00  0.0000E+00  0.4000E+00  0.4000E+00
    -12.135  0.0000E+00  0.0000E+00  0.4000E+00  0.4000E+00
    -12.000  0.0000E+00  0.0000E+00  0.4000E+00  0.4000E+00
    -11.866  0.0000E+00  0.0000E+00  0.4000E+00  0.4000E+00
    -11.732  0.0000E+00  0.0000E+00  0.4000E+00  0.4000E+00
    -11.598  0.0000E+00  0.0000E+00  0.4000E+00  0.4000E+00
    -11.463  0.0000E+00  0.0000E+00  0.4000E+00  0.4000E+00
    -11.329  0.0000E+00  0.0000E+00  0.4000E+00  0.4000E+00
    -11.195  0.0000E+00  0.0000E+00  0.4000E+00  0.4000E+00
    -11.060  0.0000E+00  0.0000E+00  0.4000E+00  0.4000E+00
    -10.926  0.0000E+00  0.0000E+00  0.4000E+00  0.4000E+00
    -10.792  0.0000E+00  0.0000E+00  0.4000E+00  0.4000E+00
    -10.658  0.0000E+00  0.0000E+00  0.4000E+00  0.4000E+00
    -10.523  0.0000E+00  0.0000E+00  0.4000E+00  0.4000E+00
    -10.389  0.0000E+00  0.0000E+00  0.4000E+00  0.4000E+00
    -10.255  0.0000E+00  0.0000E+00  0.4000E+00  0.4000E+00
    -10.120  0.0000E+00  0.0000E+00  0.4000E+00  0.4000E+00
     -9.986  0.0000E+00  0.0000E+00  0.4000E+00  0.4000E+00
     -9.852  0.0000E+00  0.0000E+00  0.4000E+00  0.4000E+00
     -9.718  0.1553E-09  0.3884E-08  0.4000E+00  0.4000E+00
     -9.583  0.7219E-03  0.2330E-02  0.4001E+00  0.4003E+00
     -9.449  0.2339E-01  0.2233E-01  0.4032E+00  0.4033E+00
     -9.315  0.7068E-03  0.1627E-03  0.4033E+00  0.4033E+00
     -9.180  0.3102E-03  0.1244E-02  0.4034E+00  0.4035E+00
     -9.046  0.4041E-01  0.2726E-01  0.4088E+00  0.4072E+00
     -8.912  0.8925E-02  0.2108E-01  0.4100E+00  0.4100E+00
     -8.778  0.8057E-03  0.5954E-04  0.4101E+00  0.4100E+00
     -8.643  0.2339E-01  0.8144E-04  0.4132E+00  0.4100E+00
     -8.509  0.6319E-03  0.2126E-01  0.4133E+00  0.4129E+00
     -8.375  0.8232E-08  0.3478E-02  0.4133E+00  0.4133E+00
     -8.240  0.2972E-02  0.1330E-07  0.4137E+00  0.4133E+00
     -8.106  0.2174E-01  0.7049E-05  0.4167E+00  0.4133E+00
     -7.972  0.1085E-03  0.1582E-01  0.4167E+00  0.4155E+00
     -7.838  0.3021E-03  0.2240E-01  0.4167E+00  0.4185E+00
     -7.703  0.2639E-01  0.1285E-01  0.4203E+00  0.4202E+00
     -7.569  0.4147E-01  0.2651E-01  0.4258E+00  0.4238E+00
     -7.435  0.2280E-01  0.3991E-01  0.4289E+00  0.4291E+00
     -7.300  0.4305E-01  0.1019E-01  0.4347E+00  0.4305E+00
     -7.166  0.1893E-01  0.2118E-01  0.4372E+00  0.4333E+00
     -7.032  0.3688E-01  0.1841E-01  0.4422E+00  0.4358E+00
     -6.898  0.3397E-01  0.3784E-01  0.4467E+00  0.4409E+00
     -6.763  0.6057E-01  0.6366E-01  0.4549E+00  0.4494E+00
     -6.629  0.5302E-01  0.4592E-01  0.4620E+00  0.4556E+00
     -6.495  0.3414E-01  0.5173E-01  0.4666E+00  0.4625E+00
     -6.360  0.2530E-01  0.3545E-01  0.4700E+00  0.4673E+00
     -6.226  0.3066E-01  0.2007E-01  0.4741E+00  0.4700E+00
     -6.092  0.3402E-01  0.1520E-01  0.4786E+00  0.4720E+00
     -5.958  0.3507E-01  0.5549E-01  0.4833E+00  0.4795E+00
     -5.823  0.5686E-01  0.5158E-01  0.4910E+00  0.4864E+00
     -5.689  0.4477E-01  0.4467E-01  0.4970E+00  0.4924E+00
     -5.555  0.4946E-01  0.5398E-01  0.5036E+00  0.4997E+00
     -5.420  0.6386E-01  0.8058E-01  0.5122E+00  0.5105E+00
     -5.286  0.8702E-01  0.9382E-01  0.5239E+00  0.5231E+00
     -5.152  0.1254E+00  0.1108E+00  0.5407E+00  0.5380E+00
     -5.018  0.1182E+00  0.1185E+00  0.5566E+00  0.5539E+00
     -4.883  0.1375E+00  0.1254E+00  0.5751E+00  0.5707E+00
     -4.749  0.1433E+00  0.1367E+00  0.5943E+00  0.5891E+00
     -4.615  0.1293E+00  0.1284E+00  0.6117E+00  0.6063E+00
     -4.480  0.8170E-01  0.9154E-01  0.6226E+00  0.6186E+00
     -4.346  0.8327E-01  0.8383E-01  0.6338E+00  0.6299E+00
     -4.212  0.9266E-01  0.8380E-01  0.6463E+00  0.6411E+00
     -4.078  0.1243E+00  0.1268E+00  0.6630E+00  0.6582E+00
     -3.943  0.1404E+00  0.1396E+00  0.6818E+00  0.6769E+00
     -3.809  0.1406E+00  0.1454E+00  0.7007E+00  0.6964E+00
     -3.675  0.1240E+00  0.1200E+00  0.7173E+00  0.7125E+00
     -3.540  0.1082E+00  0.1158E+00  0.7319E+00  0.7281E+00
     -3.406  0.9714E-01  0.9098E-01  0.7449E+00  0.7403E+00
     -3.272  0.1266E+00  0.1298E+00  0.7619E+00  0.7577E+00
     -3.138  0.1404E+00  0.1382E+00  0.7808E+00  0.7763E+00
     -3.003  0.1067E+00  0.1288E+00  0.7951E+00  0.7936E+00
     -2.869  0.1304E+00  0.1342E+00  0.8126E+00  0.8116E+00
     -2.735  0.1928E+00  0.1881E+00  0.8385E+00  0.8369E+00
     -2.600  0.1787E+00  0.1813E+00  0.8625E+00  0.8612E+00
     -2.466  0.7189E-01  0.7386E-01  0.8722E+00  0.8711E+00
     -2.332  0.1694E+00  0.1518E+00  0.8949E+00  0.8915E+00
     -2.198  0.4575E-01  0.3680E-01  0.9010E+00  0.8964E+00
     -2.063  0.5421E-01  0.6633E-01  0.9083E+00  0.9054E+00
     -1.929  0.7671E-01  0.5399E-01  0.9186E+00  0.9126E+00
     -1.795  0.2711E-01  0.1712E-01  0.9223E+00  0.9149E+00
     -1.661  0.2443E-01  0.5732E-01  0.9255E+00  0.9226E+00
     -1.526  0.5229E-01  0.1554E-01  0.9326E+00  0.9247E+00
     -1.392  0.5823E-01  0.3414E-01  0.9404E+00  0.9293E+00
     -1.258  0.3359E-01  0.2399E-01  0.9449E+00  0.9325E+00
     -1.123  0.4296E-01  0.2411E-01  0.9507E+00  0.9357E+00
     -0.989  0.1981E-01  0.6996E-02  0.9533E+00  0.9367E+00
     -0.855  0.3300E-04  0.1503E-06  0.9533E+00  0.9367E+00
     -0.721  0.3639E-05  0.2565E-13  0.9533E+00  0.9367E+00
     -0.586  0.1415E-01  0.1530E-04  0.9552E+00  0.9367E+00
     -0.452  0.2213E-01  0.2233E-01  0.9582E+00  0.9397E+00
     -0.318  0.4084E-01  0.5937E-01  0.9637E+00  0.9476E+00
     -0.183  0.4409E-01  0.4918E-01  0.9696E+00  0.9542E+00
     -0.049  0.1044E+00  0.8445E-01  0.9836E+00  0.9656E+00
      0.085  0.2724E+00  0.2671E+00  0.1020E+01  0.1001E+01
      0.219  0.6005E+00  0.6139E+00  0.1101E+01  0.1084E+01
      0.354  0.7279E+00  0.7488E+00  0.1199E+01  0.1184E+01
      0.488  0.5064E+00  0.5349E+00  0.1267E+01  0.1256E+01
      0.622  0.9974E-01  0.1765E+00  0.1280E+01  0.1280E+01
      0.757  0.3842E-04  0.3528E-03  0.1280E+01  0.1280E+01
      0.891  0.6781E-13  0.7084E-11  0.1280E+01  0.1280E+01
      1.025  0.0000E+00  0.0000E+00  0.1280E+01  0.1280E+01
      1.159  0.0000E+00  0.0000E+00  0.1280E+01  0.1280E+01
      1.294  0.0000E+00  0.0000E+00  0.1280E+01  0.1280E+01
      1.428  0.0000E+00  0.0000E+00  0.1280E+01  0.1280E+01
      1.562  0.0000E+00  0.0000E+00  0.1280E+01  0.1280E+01
      1.697  0.0000E+00  0.0000E+00  0.1280E+01  0.1280E+01
      1.831  0.0000E+00  0.0000E+00  0.1280E+01  0.1280E+01
      1.965  0.0000E+00  0.0000E+00  0.1280E+01  0.1280E+01
      2.099  0.0000E+00  0.0000E+00  0.1280E+01  0.1280E+01
      2.234  0.0000E+00  0.0000E+00  0.1280E+01  0.1280E+01
      2.368  0.0000E+00  0.0000E+00  0.1280E+01  0.1280E+01
