<?xml version="1.0" encoding="ISO-8859-1"?>
<modeling>
 <generator>
  <i name="program" type="string">vasp </i>
  <i name="version" type="string">6.4.3  </i>
  <i name="subversion" type="string">19Mar24 (build Mar 01 2025 18:03:59) gamma-only                       parallel </i>
  <i name="platform" type="string">Shaheen </i>
  <i name="date" type="string">2025 04 26 </i>
  <i name="time" type="string">10:54:08 </i>
 </generator>
 <incar>
  <i type="int" name="ISTART">     1</i>
  <i type="string" name="PREC">Accurate   (Precision level: Normal or Accurate, set Accurate when perform structure lattice relaxation calculation)</i>
  <i type="logical" name="ADDGRID"> T  </i>
  <i type="int" name="ISPIN">     2</i>
  <i type="int" name="NELM">    90</i>
  <i type="int" name="NELMIN">     6</i>
  <i type="int" name="IBRION">     2</i>
  <i name="EDIFF">      0.00000100</i>
  <i name="EDIFFG">     -0.02000000</i>
  <i type="int" name="NSW">   300</i>
  <i type="int" name="ISIF">     2</i>
  <i name="ENCUT">    520.00000000</i>
  <v name="MAGMOM">      1.00000000      1.00000000      1.00000000      1.00000000      1.00000000      1.00000000      1.00000000      1.00000000      1.00000000      1.00000000      1.00000000      1.00000000      1.00000000      1.00000000      1.00000000      1.00000000      1.00000000      1.00000000      0.60000000      0.60000000
      0.60000000      0.60000000      0.60000000      0.60000000      0.60000000      0.60000000      0.60000000      0.60000000      0.60000000      0.60000000      0.60000000      0.60000000      0.60000000      0.60000000      0.60000000      0.60000000      0.60000000      0.60000000      0.60000000      0.60000000
      0.60000000      0.60000000      0.60000000      0.60000000      0.60000000      0.60000000      0.60000000      0.60000000      0.60000000      0.60000000      0.60000000      0.60000000      0.60000000      0.60000000      0.60000000      0.60000000      0.60000000      0.60000000      0.60000000      0.60000000
      0.60000000      0.60000000      0.60000000      0.60000000      0.60000000      0.60000000      0.60000000      0.60000000      0.60000000      0.60000000      0.60000000      0.60000000      0.60000000</v>
  <i type="logical" name="LREAL"> F  </i>
  <i type="int" name="ISMEAR">     0</i>
  <i name="SIGMA">      0.05000000</i>
  <i type="int" name="LMAXMIX">     6</i>
  <i type="logical" name="LWAVE"> F  </i>
  <i type="logical" name="LCHARG"> F  </i>
  <i type="logical" name="LASPH"> T  </i>
  <i type="logical" name="LDAU"> T  </i>
  <i type="int" name="LDAUTYPE">     2</i>
  <v type="int" name="LDAUL">     3    -1     2</v>
  <v name="LDAUU">      5.00000000      0.00000000      2.00000000</v>
  <v name="LDAUJ">      0.00000000      0.00000000      0.00000000</v>
 </incar>
 <primitive_cell>
  <structure name="primitive_cell" >
   <crystal>
    <varray name="basis" >
     <v>      11.59819984       0.00000000       0.00000000 </v>
     <v>      -5.79909992      10.04433570       0.00000000 </v>
     <v>       0.00000000       0.00000000      21.04820061 </v>
    </varray>
    <i name="volume">   2452.03565684 </i>
    <varray name="rec_basis" >
     <v>       0.08622028       0.04977930       0.00000000 </v>
     <v>       0.00000000       0.09955860       0.00000000 </v>
     <v>       0.00000000       0.00000000       0.04751000 </v>
    </varray>
   </crystal>
   <varray name="positions" >
    <v>       0.00355000       0.99614000       0.45681000 </v>
    <v>       0.22222000       0.11111000       0.30996000 </v>
    <v>       0.32535000       0.99764000       0.46049000 </v>
    <v>       0.55556000       0.11111000       0.30996000 </v>
    <v>       0.66944000       0.00531000       0.46128000 </v>
    <v>       0.88889000       0.11111000       0.30996000 </v>
    <v>       0.99424000       0.33045000       0.46165000 </v>
    <v>       0.22222000       0.44444000       0.30996000 </v>
    <v>       0.34031000       0.34358000       0.46228000 </v>
    <v>       0.55556000       0.44444000       0.30996000 </v>
    <v>       0.67098000       0.32944000       0.45664000 </v>
    <v>       0.88889000       0.44444000       0.30996000 </v>
    <v>       0.00519000       0.67621000       0.45924000 </v>
    <v>       0.22222000       0.77778000       0.30996000 </v>
    <v>       0.33328000       0.66703000       0.45847000 </v>
    <v>       0.55556000       0.77778000       0.30996000 </v>
    <v>       0.65704000       0.65973000       0.46251000 </v>
    <v>       0.88889000       0.77778000       0.30996000 </v>
    <v>       0.01036000       0.99416000       0.58698000 </v>
    <v>       0.11111000       0.22222000       0.27247000 </v>
    <v>       0.22658000       0.11867000       0.42170000 </v>
    <v>       0.10952000       0.21810000       0.50284000 </v>
    <v>       0.00000000       0.00000000       0.34745000 </v>
    <v>       0.33679000       0.03234000       0.58178000 </v>
    <v>       0.44444000       0.22222000       0.27247000 </v>
    <v>       0.55234000       0.10748000       0.42117000 </v>
    <v>       0.44843000       0.21994000       0.49838000 </v>
    <v>       0.33333000       0.00000000       0.34745000 </v>
    <v>       0.63907000       0.97476000       0.58229000 </v>
    <v>       0.77778000       0.22222000       0.27247000 </v>
    <v>       0.89111000       0.10888000       0.42284000 </v>
    <v>       0.77710000       0.22213000       0.49045000 </v>
    <v>       0.66667000       0.00000000       0.34745000 </v>
    <v>       0.02319000       0.35952000       0.58092000 </v>
    <v>       0.11111000       0.55556000       0.27247000 </v>
    <v>       0.21300000       0.43127000       0.42216000 </v>
    <v>       0.10507000       0.55962000       0.50211000 </v>
    <v>       1.00000000       0.33333000       0.34745000 </v>
    <v>       0.31096000       0.34571000       0.59083000 </v>
    <v>       0.44444000       0.55556000       0.27247000 </v>
    <v>       0.55607000       0.44417000       0.41837000 </v>
    <v>       0.44186000       0.54615000       0.51936000 </v>
    <v>       0.33333000       0.33333000       0.34745000 </v>
    <v>       0.66479000       0.33801000       0.59004000 </v>
    <v>       0.77778000       0.55556000       0.27247000 </v>
    <v>       0.89287000       0.44679000       0.42076000 </v>
    <v>       0.78297000       0.55197000       0.49808000 </v>
    <v>       0.66667000       0.33333000       0.34745000 </v>
    <v>       0.96889000       0.66204000       0.58342000 </v>
    <v>       0.11111000       0.88889000       0.27247000 </v>
    <v>       0.22005000       0.78147000       0.42007000 </v>
    <v>       0.11006000       0.89029000       0.48937000 </v>
    <v>       1.00000000       0.66667000       0.34745000 </v>
    <v>       0.30006000       0.70033000       0.59351000 </v>
    <v>       0.44444000       0.88889000       0.27247000 </v>
    <v>       0.56880000       0.78642000       0.42250000 </v>
    <v>       0.44021000       0.89483000       0.50291000 </v>
    <v>       0.33333000       0.66667000       0.34745000 </v>
    <v>       0.65711000       0.69276000       0.58792000 </v>
    <v>       0.77778000       0.88889000       0.27247000 </v>
    <v>       0.88146000       0.77372000       0.42160000 </v>
    <v>       0.78251000       0.89105000       0.50266000 </v>
    <v>       0.66667000       0.66667000       0.34745000 </v>
    <v>       0.34134000       0.52208000       0.61020000 </v>
    <v>       0.61871000       0.48333000       0.60482000 </v>
    <v>       0.53267000       0.48676000       0.67821000 </v>
    <v>       0.49326000       0.50796000       0.59914000 </v>
    <v>       0.15674000       0.17333000       0.58472000 </v>
    <v>       0.49459000       0.18326000       0.58240000 </v>
    <v>       0.81823000       0.50554000       0.58234000 </v>
    <v>       0.83184000       0.84789000       0.58500000 </v>
    <v>       0.47030000       0.84261000       0.58700000 </v>
    <v>       0.15366000       0.53050000       0.58694000 </v>
   </varray>
  </structure>
  <varray name="primitive_index" >
   <v type="int" >        1 </v>
   <v type="int" >        2 </v>
   <v type="int" >        3 </v>
   <v type="int" >        4 </v>
   <v type="int" >        5 </v>
   <v type="int" >        6 </v>
   <v type="int" >        7 </v>
   <v type="int" >        8 </v>
   <v type="int" >        9 </v>
   <v type="int" >       10 </v>
   <v type="int" >       11 </v>
   <v type="int" >       12 </v>
   <v type="int" >       13 </v>
   <v type="int" >       14 </v>
   <v type="int" >       15 </v>
   <v type="int" >       16 </v>
   <v type="int" >       17 </v>
   <v type="int" >       18 </v>
   <v type="int" >       19 </v>
   <v type="int" >       20 </v>
   <v type="int" >       21 </v>
   <v type="int" >       22 </v>
   <v type="int" >       23 </v>
   <v type="int" >       24 </v>
   <v type="int" >       25 </v>
   <v type="int" >       26 </v>
   <v type="int" >       27 </v>
   <v type="int" >       28 </v>
   <v type="int" >       29 </v>
   <v type="int" >       30 </v>
   <v type="int" >       31 </v>
   <v type="int" >       32 </v>
   <v type="int" >       33 </v>
   <v type="int" >       34 </v>
   <v type="int" >       35 </v>
   <v type="int" >       36 </v>
   <v type="int" >       37 </v>
   <v type="int" >       38 </v>
   <v type="int" >       39 </v>
   <v type="int" >       40 </v>
   <v type="int" >       41 </v>
   <v type="int" >       42 </v>
   <v type="int" >       43 </v>
   <v type="int" >       44 </v>
   <v type="int" >       45 </v>
   <v type="int" >       46 </v>
   <v type="int" >       47 </v>
   <v type="int" >       48 </v>
   <v type="int" >       49 </v>
   <v type="int" >       50 </v>
   <v type="int" >       51 </v>
   <v type="int" >       52 </v>
   <v type="int" >       53 </v>
   <v type="int" >       54 </v>
   <v type="int" >       55 </v>
   <v type="int" >       56 </v>
   <v type="int" >       57 </v>
   <v type="int" >       58 </v>
   <v type="int" >       59 </v>
   <v type="int" >       60 </v>
   <v type="int" >       61 </v>
   <v type="int" >       62 </v>
   <v type="int" >       63 </v>
   <v type="int" >       64 </v>
   <v type="int" >       65 </v>
   <v type="int" >       66 </v>
   <v type="int" >       67 </v>
   <v type="int" >       68 </v>
   <v type="int" >       69 </v>
   <v type="int" >       70 </v>
   <v type="int" >       71 </v>
   <v type="int" >       72 </v>
   <v type="int" >       73 </v>
  </varray>
 </primitive_cell>
 <kpoints>
  <generation param="Gamma">
   <v type="int" name="divisions">       1        1        1 </v>
   <v name="usershift">      0.00000000       0.00000000       0.00000000 </v>
   <v name="genvec1">      1.00000000      -0.00000000       0.00000000 </v>
   <v name="genvec2">      0.00000000       1.00000000       0.00000000 </v>
   <v name="genvec3">      0.00000000       0.00000000       1.00000000 </v>
   <v name="shift">      0.00000000       0.00000000       0.00000000 </v>
  </generation>
  <varray name="kpointlist" >
   <v>       0.00000000       0.00000000       0.00000000 </v>
  </varray>
  <varray name="weights" >
   <v>       1.00000000 </v>
  </varray>
 </kpoints>
 <parameters>
  <separator name="general" >
   <i type="string" name="SYSTEM">unknown system</i>
   <i type="logical" name="LCOMPAT"> F  </i>
  </separator>
  <separator name="electronic" >
   <i type="string" name="PREC">accura</i>
   <i name="ENMAX">    520.00000000</i>
   <i name="ENAUG">    605.39200000</i>
   <i name="EDIFF">      0.00000100</i>
   <i type="int" name="IALGO">    38</i>
   <i type="int" name="IWAVPR">    11</i>
   <i type="int" name="NBANDS">   384</i>
   <i type="int" name="NBANDSLOW">    -1</i>
   <i type="int" name="NBANDSHIGH">    -1</i>
   <i name="NELECT">    567.00000000</i>
   <i type="int" name="TURBO">     0</i>
   <i type="int" name="IRESTART">     0</i>
   <i type="int" name="NREBOOT">     0</i>
   <i type="int" name="NMIN">     0</i>
   <i name="EREF">      0.00000000</i>
   <separator name="electronic smearing" >
    <i type="int" name="ISMEAR">     0</i>
    <i name="SIGMA">      0.05000000</i>
    <i name="KSPACING">      0.50000000</i>
    <i type="logical" name="KGAMMA"> T  </i>
    <i type="logical" name="KBLOWUP"> T  </i>
   </separator>
   <separator name="electronic projectors" >
    <i type="logical" name="LREAL"> F  </i>
    <v name="ROPT">      0.00000000      0.00000000      0.00000000</v>
    <i type="int" name="LMAXPAW">  -100</i>
    <i type="int" name="LMAXMIX">     6</i>
    <i type="logical" name="NLSPLINE"> F  </i>
   </separator>
   <separator name="electronic startup" >
    <i type="int" name="ISTART">     0</i>
    <i type="int" name="ICHARG">     2</i>
    <i type="int" name="INIWAV">     1</i>
   </separator>
   <separator name="electronic spin" >
    <i type="int" name="ISPIN">     2</i>
    <i type="logical" name="LNONCOLLINEAR"> F  </i>
    <v name="MAGMOM">      1.00000000      1.00000000      1.00000000      1.00000000      1.00000000      1.00000000      1.00000000      1.00000000      1.00000000      1.00000000      1.00000000      1.00000000      1.00000000      1.00000000      1.00000000      1.00000000      1.00000000      1.00000000      0.60000000      0.60000000
      0.60000000      0.60000000      0.60000000      0.60000000      0.60000000      0.60000000      0.60000000      0.60000000      0.60000000      0.60000000      0.60000000      0.60000000      0.60000000      0.60000000      0.60000000      0.60000000      0.60000000      0.60000000      0.60000000      0.60000000
      0.60000000      0.60000000      0.60000000      0.60000000      0.60000000      0.60000000      0.60000000      0.60000000      0.60000000      0.60000000      0.60000000      0.60000000      0.60000000      0.60000000      0.60000000      0.60000000      0.60000000      0.60000000      0.60000000      0.60000000
      0.60000000      0.60000000      0.60000000      0.60000000      0.60000000      0.60000000      0.60000000      0.60000000      0.60000000      0.60000000      0.60000000      0.60000000      0.60000000</v>
    <i name="NUPDOWN">     -1.00000000</i>
    <i type="logical" name="LSORBIT"> F  </i>
    <v name="SAXIS">      0.00000000      0.00000000      1.00000000</v>
    <i type="logical" name="LSPIRAL"> F  </i>
    <v name="QSPIRAL">      0.00000000      0.00000000      0.00000000</v>
    <i type="logical" name="LZEROZ"> F  </i>
   </separator>
   <separator name="electronic exchange-correlation" >
    <i type="logical" name="LASPH"> T  </i>
   </separator>
   <separator name="electronic convergence" >
    <i type="int" name="NELM">    90</i>
    <i type="int" name="NELMDL">     0</i>
    <i type="int" name="NELMIN">     6</i>
    <i name="ENINI">    520.00000000</i>
    <separator name="electronic convergence detail" >
     <i type="logical" name="LDIAG"> T  </i>
     <i type="logical" name="LSUBROT"> F  </i>
     <i name="WEIMIN">      0.00100000</i>
     <i name="EBREAK">      0.00000000</i>
     <i name="DEPER">      0.30000000</i>
     <i type="int" name="NRMM">     4</i>
     <i name="TIME">      0.40000000</i>
    </separator>
   </separator>
   <separator name="electronic mixer" >
    <i name="AMIX">      0.40000000</i>
    <i name="BMIX">      1.00000000</i>
    <i name="AMIN">      0.10000000</i>
    <i name="AMIX_MAG">      1.60000000</i>
    <i name="BMIX_MAG">      1.00000000</i>
    <separator name="electronic mixer details" >
     <i type="int" name="IMIX">     4</i>
     <i type="logical" name="MIXFIRST"> F  </i>
     <i type="int" name="MAXMIX">   -45</i>
     <i name="WC">    100.00000000</i>
     <i type="int" name="INIMIX">     1</i>
     <i type="int" name="MIXPRE">     1</i>
     <i type="int" name="MREMOVE">     5</i>
    </separator>
   </separator>
   <separator name="electronic dipolcorrection" >
    <i type="logical" name="LDIPOL"> F  </i>
    <i type="logical" name="LMONO"> F  </i>
    <i type="int" name="IDIPOL">     0</i>
    <i name="EPSILON">      1.00000000</i>
    <v name="DIPOL">   -100.00000000   -100.00000000   -100.00000000</v>
    <i name="EFIELD">      0.00000000</i>
    <i type="logical" name="LVACPOTAV"> F  </i>
   </separator>
  </separator>
  <separator name="grids" >
   <i type="int" name="NGX">    90</i>
   <i type="int" name="NGY">    90</i>
   <i type="int" name="NGZ">   160</i>
   <i type="int" name="NGXF">   180</i>
   <i type="int" name="NGYF">   180</i>
   <i type="int" name="NGZF">   320</i>
   <i type="logical" name="ADDGRID"> T  </i>
  </separator>
  <separator name="ionic" >
   <i type="int" name="NSW">   300</i>
   <i type="int" name="IBRION">     2</i>
   <i type="int" name="MDALGO">     0</i>
   <i type="int" name="ISIF">     2</i>
   <i name="PSTRESS">      0.00000000</i>
   <i name="EDIFFG">     -0.02000000</i>
   <i type="int" name="NFREE">     1</i>
   <i name="POTIM">      0.50000000</i>
   <i name="SMASS">     -3.00000000</i>
   <i name="SCALEE">      1.00000000</i>
  </separator>
  <separator name="ionic md" >
   <i name="TEBEG">      0.00010000</i>
   <i name="TEEND">      0.00010000</i>
   <i type="int" name="NBLOCK">     1</i>
   <i type="int" name="KBLOCK">   300</i>
   <i type="int" name="NPACO">   256</i>
   <i name="APACO">     10.00000000</i>
  </separator>
  <separator name="symmetry" >
   <i type="int" name="ISYM">     2</i>
   <i name="SYMPREC">      0.00001000</i>
  </separator>
  <separator name="dos" >
   <i type="int" name="LORBIT">     0</i>
   <v name="RWIGS">     -1.00000000     -1.00000000     -1.00000000</v>
   <i type="int" name="NEDOS">   301</i>
   <i name="EMIN">     10.00000000</i>
   <i name="EMAX">    -10.00000000</i>
   <i name="EFERMI">      0.00000000</i>
  </separator>
  <separator name="writing" >
   <i type="int" name="NWRITE">     2</i>
   <i type="logical" name="LWAVE"> F  </i>
   <i type="logical" name="LDOWNSAMPLE"> F  </i>
   <i type="logical" name="LCHARG"> F  </i>
   <i type="logical" name="LPARD"> F  </i>
   <i type="logical" name="LVTOT"> F  </i>
   <i type="logical" name="LVHAR"> F  </i>
   <i type="logical" name="LELF"> F  </i>
   <i type="logical" name="LOPTICS"> F  </i>
   <v name="STM">      0.00000000      0.00000000      0.00000000      0.00000000      0.00000000      0.00000000      0.00000000</v>
  </separator>
  <separator name="performance" >
   <i type="int" name="NPAR">    48</i>
   <i type="int" name="NSIM">     4</i>
   <i type="int" name="NBLK">    -1</i>
   <i type="logical" name="LPLANE"> T  </i>
   <i type="logical" name="LSCALAPACK"> T  </i>
   <i type="logical" name="LSCAAWARE"> T  </i>
   <i type="logical" name="LSCALU"> F  </i>
   <i type="logical" name="LASYNC"> F  </i>
   <i type="logical" name="LORBITALREAL"> F  </i>
  </separator>
  <separator name="miscellaneous" >
   <i type="int" name="IDIOT">     3</i>
   <i type="int" name="PHON_NSTRUCT">    -1</i>
   <i type="logical" name="LMUSIC"> F  </i>
   <v name="POMASS">    140.11500000     16.00000000    192.22000000</v>
   <v name="DARWINR">      0.00000000      0.00000000      0.00000000</v>
   <v name="DARWINV">      1.00000000      1.00000000      1.00000000</v>
   <i type="logical" name="LCORR"> T  </i>
  </separator>
  <i type="logical" name="GGA_COMPAT"> T  </i>
  <i type="logical" name="LBERRY"> F  </i>
  <i type="int" name="ICORELEVEL">     0</i>
  <i type="logical" name="LDAU"> T  </i>
  <v type="int" name="LDAUTYPE">     2</v>
  <v type="int" name="LDAUL">     3</v>
  <v name="LDAUU">      5.00000000</v>
  <v name="LDAUJ">      0.00000000</v>
  <i type="int" name="LDAUPRINT">     0</i>
  <i type="int" name="I_CONSTRAINED_M">     0</i>
  <separator name="electronic exchange-correlation" >
   <i type="string" name="GGA    ">PE</i>
   <i type="string" name="XC_C">1</i>
   <i type="int" name="VOSKOWN">     0</i>
   <i type="logical" name="LHFCALC"> F  </i>
   <i type="string" name="PRECFOCK"></i>
   <i type="logical" name="LSYMGRAD"> F  </i>
   <i type="logical" name="LHFONE"> F  </i>
   <i type="logical" name="LRHFCALC"> F  </i>
   <i type="logical" name="LTHOMAS"> F  </i>
   <i type="logical" name="LMODELHF"> F  </i>
   <i type="logical" name="LFOCKACE"> F  </i>
   <i name="ENCUT4O">     -1.00000000</i>
   <i type="int" name="EXXOEP">     0</i>
   <i type="int" name="FOURORBIT">     0</i>
   <i name="AEXX">      0.00000000</i>
   <i name="HFALPHA">      0.00000000</i>
   <i name="MCALPHA">      0.00000000</i>
   <i name="ALDAX">      1.00000000</i>
   <i name="AGGAX">      1.00000000</i>
   <i name="AMGGAX">      1.00000000</i>
   <i name="ALDAC">      1.00000000</i>
   <i name="AGGAC">      1.00000000</i>
   <i name="AMGGAC">      1.00000000</i>
   <i type="int" name="NKREDX">     1</i>
   <i type="int" name="NKREDY">     1</i>
   <i type="int" name="NKREDZ">     1</i>
   <i type="logical" name="SHIFTRED"> F  </i>
   <i type="logical" name="ODDONLY"> F  </i>
   <i type="logical" name="EVENONLY"> F  </i>
   <i type="int" name="LMAXFOCK">     0</i>
   <i type="int" name="NMAXFOCKAE">     0</i>
   <i type="logical" name="LFOCKAEDFT"> F  </i>
   <i name="HFSCREEN">      0.00000000</i>
   <i name="HFSCREENC">      0.00000000</i>
   <i type="int" name="NBANDSGWLOW">     0</i>
  </separator>
  <separator name="vdW DFT" >
   <i type="logical" name="LUSE_VDW"> F  </i>
   <i type="int" name="IVDW_NL">    -1</i>
   <i type="logical" name="LSPIN_VDW"> F  </i>
   <i name="ZAB_VDW">     -0.84910000</i>
   <i name="GAMMA_VDW">      1.39626340</i>
   <i name="ALPHA_VDW">      0.00000000</i>
   <i name="PARAM1">      0.12340000</i>
   <i name="PARAM2">      1.00000000</i>
   <i name="BPARAM">      6.30000000</i>
   <i name="CPARAM">      0.00930000</i>
  </separator>
  <separator name="model GW" >
   <i type="int" name="MODEL_GW">     0</i>
   <i name="MODEL_EPS0">     20.15371773</i>
   <i name="MODEL_ALPHA">      1.00000000</i>
  </separator>
  <separator name="linear response parameters" >
   <i type="logical" name="LEPSILON"> F  </i>
   <i type="logical" name="LRPA"> F  </i>
   <i type="logical" name="LNABLA"> F  </i>
   <i type="logical" name="LVEL"> F  </i>
   <i name="CSHIFT">      0.10000000</i>
   <i name="OMEGAMAX">     -1.00000000</i>
   <i name="DEG_THRESHOLD">      0.00200000</i>
   <i name="RTIME">     -0.10000000</i>
   <i name="WPLASMAI">      0.00000000</i>
   <v name="DFIELD">      0.00000000      0.00000000      0.00000000</v>
   <v name="WPLASMA">      0.00000000      0.00000000      0.00000000      0.00000000      0.00000000      0.00000000      0.00000000      0.00000000      0.00000000</v>
  </separator>
  <separator name="orbital magnetization" >
   <i type="logical" name="NUCIND"> F  </i>
   <v name="MAGPOS">      0.00000000      0.00000000      0.00000000</v>
   <i type="logical" name="LNICSALL"> T  </i>
   <i type="logical" name="ORBITALMAG"> F  </i>
   <i type="logical" name="LMAGBLOCH"> F  </i>
   <i type="logical" name="LCHIMAG"> F  </i>
   <i type="logical" name="LGAUGE"> T  </i>
   <i type="int" name="MAGATOM">     0</i>
   <v name="MAGDIPOL">      0.00000000      0.00000000      0.00000000</v>
   <v name="AVECCONST">      0.00000000      0.00000000      0.00000000</v>
  </separator>
  <separator name="response functions" >
   <i type="logical" name="LALL_IN_ONE"> F  </i>
   <i type="int" name="IALL_IN_ONE">    -1</i>
   <i type="int" name="NBANDS_WAVE">    -1</i>
   <i type="logical" name="LFINITE_TEMPERATURE"> F  </i>
   <i type="logical" name="LADDER"> F  </i>
   <i type="logical" name="LRPAFORCE"> F  </i>
   <i type="logical" name="LFXC"> F  </i>
   <i type="logical" name="LHARTREE"> T  </i>
   <i type="int" name="IBSE">     0</i>
   <v type="int" name="KPOINT">    -1     0     0     0</v>
   <i type="logical" name="LTCTC"> F  </i>
   <i type="logical" name="LTCTE"> F  </i>
   <i type="logical" name="LTETE"> F  </i>
   <i type="logical" name="LTRIPLET"> F  </i>
   <i type="logical" name="LFXCEPS"> F  </i>
   <i type="logical" name="LFXHEG"> F  </i>
   <i type="int" name="NATURALO">     2</i>
   <i type="logical" name="LHOLEGF"> F  </i>
   <i type="logical" name="L2ORDER"> F  </i>
   <i type="logical" name="LDMP1"> F  </i>
   <i type="logical" name="LMP2LT"> F  </i>
   <i type="logical" name="LSMP2LT"> F  </i>
   <i type="logical" name="LGWLF"> F  </i>
   <i name="ENCUTGW">     -1.60000002</i>
   <i name="ENCUTGWSOFT">     -1.60000002</i>
   <i name="ENCUTLF">     -1.00000000</i>
   <i type="logical" name="ESF_SPLINES"> F  </i>
   <i name="ESF_CONV">      0.01000000</i>
   <i type="int" name="ESF_NINTER">    15</i>
   <i type="int" name="LMAXMP2">    -1</i>
   <i name="SCISSOR">      0.00000000</i>
   <i type="int" name="NOMEGA">     0</i>
   <i type="int" name="NOMEGAR">     0</i>
   <i type="int" name="NBANDSGW">    -1</i>
   <i type="int" name="NBANDSO">    -1</i>
   <i type="int" name="NBANDSV">    -1</i>
   <i type="int" name="NELMGW">     1</i>
   <i type="int" name="NELMHF">     1</i>
   <i type="int" name="DIM">     3</i>
   <i type="int" name="IESPILON">     4</i>
   <i type="int" name="ANTIRES">     0</i>
   <i name="OMEGAMAX">    -30.00000000</i>
   <i name="OMEGAMIN">    -30.00000000</i>
   <i name="OMEGATL">   -200.00000000</i>
   <i type="int" name="OMEGAGRID">     0</i>
   <i name="CSHIFT">     -0.10000000</i>
   <i type="logical" name="LSELFENERGY"> F  </i>
   <i type="logical" name="LSPECTRAL"> F  </i>
   <i type="logical" name="LSPECTRALGW"> F  </i>
   <i type="logical" name="LSINGLES"> F  </i>
   <i type="logical" name="LFERMIGW"> F  </i>
   <i type="logical" name="ODDONLYGW"> F  </i>
   <i type="logical" name="EVENONLYGW"> F  </i>
   <i type="int" name="NKREDLFX">     1</i>
   <i type="int" name="NKREDLFY">     1</i>
   <i type="int" name="NKREDLFZ">     1</i>
   <i type="int" name="MAXMEM">  2800</i>
   <i type="int" name="TELESCOPE">     0</i>
   <i type="int" name="NTAUPAR">    -1</i>
   <i type="int" name="NOMEGAPAR">    -1</i>
   <i name="DAMP_NEWTON">      0.80000001</i>
   <i name="LAMBDA">      1.00000000</i>
  </separator>
  <separator name="External order field" >
   <i name="OFIELD_KAPPA">      0.00000000</i>
   <v name="OFIELD_K">      0.00000000      0.00000000      0.00000000</v>
   <i name="OFIELD_Q6_NEAR">      0.00000000</i>
   <i name="OFIELD_Q6_FAR">      0.00000000</i>
   <i name="OFIELD_A">      0.00000000</i>
  </separator>
  <separator name="optional k-points parameters" >
   <i type="int" name="KPOINTS_OPT_MODE">     1</i>
   <i type="logical" name="LKPOINTS_OPT"> F  </i>
  </separator>
 </parameters>
 <atominfo>
  <atoms>      73 </atoms>
  <types>       3 </types>
  <array name="atoms" >
   <dimension dim="1">ion</dimension>
   <field type="string">element</field>
   <field type="int">atomtype</field>
   <set>
    <rc><c>Ce</c><c>   1</c></rc>
    <rc><c>Ce</c><c>   1</c></rc>
    <rc><c>Ce</c><c>   1</c></rc>
    <rc><c>Ce</c><c>   1</c></rc>
    <rc><c>Ce</c><c>   1</c></rc>
    <rc><c>Ce</c><c>   1</c></rc>
    <rc><c>Ce</c><c>   1</c></rc>
    <rc><c>Ce</c><c>   1</c></rc>
    <rc><c>Ce</c><c>   1</c></rc>
    <rc><c>Ce</c><c>   1</c></rc>
    <rc><c>Ce</c><c>   1</c></rc>
    <rc><c>Ce</c><c>   1</c></rc>
    <rc><c>Ce</c><c>   1</c></rc>
    <rc><c>Ce</c><c>   1</c></rc>
    <rc><c>Ce</c><c>   1</c></rc>
    <rc><c>Ce</c><c>   1</c></rc>
    <rc><c>Ce</c><c>   1</c></rc>
    <rc><c>Ce</c><c>   1</c></rc>
    <rc><c>O </c><c>   2</c></rc>
    <rc><c>O </c><c>   2</c></rc>
    <rc><c>O </c><c>   2</c></rc>
    <rc><c>O </c><c>   2</c></rc>
    <rc><c>O </c><c>   2</c></rc>
    <rc><c>O </c><c>   2</c></rc>
    <rc><c>O </c><c>   2</c></rc>
    <rc><c>O </c><c>   2</c></rc>
    <rc><c>O </c><c>   2</c></rc>
    <rc><c>O </c><c>   2</c></rc>
    <rc><c>O </c><c>   2</c></rc>
    <rc><c>O </c><c>   2</c></rc>
    <rc><c>O </c><c>   2</c></rc>
    <rc><c>O </c><c>   2</c></rc>
    <rc><c>O </c><c>   2</c></rc>
    <rc><c>O </c><c>   2</c></rc>
    <rc><c>O </c><c>   2</c></rc>
    <rc><c>O </c><c>   2</c></rc>
    <rc><c>O </c><c>   2</c></rc>
    <rc><c>O </c><c>   2</c></rc>
    <rc><c>O </c><c>   2</c></rc>
    <rc><c>O </c><c>   2</c></rc>
    <rc><c>O </c><c>   2</c></rc>
    <rc><c>O </c><c>   2</c></rc>
    <rc><c>O </c><c>   2</c></rc>
    <rc><c>O </c><c>   2</c></rc>
    <rc><c>O </c><c>   2</c></rc>
    <rc><c>O </c><c>   2</c></rc>
    <rc><c>O </c><c>   2</c></rc>
    <rc><c>O </c><c>   2</c></rc>
    <rc><c>O </c><c>   2</c></rc>
    <rc><c>O </c><c>   2</c></rc>
    <rc><c>O </c><c>   2</c></rc>
    <rc><c>O </c><c>   2</c></rc>
    <rc><c>O </c><c>   2</c></rc>
    <rc><c>O </c><c>   2</c></rc>
    <rc><c>O </c><c>   2</c></rc>
    <rc><c>O </c><c>   2</c></rc>
    <rc><c>O </c><c>   2</c></rc>
    <rc><c>O </c><c>   2</c></rc>
    <rc><c>O </c><c>   2</c></rc>
    <rc><c>O </c><c>   2</c></rc>
    <rc><c>O </c><c>   2</c></rc>
    <rc><c>O </c><c>   2</c></rc>
    <rc><c>O </c><c>   2</c></rc>
    <rc><c>O </c><c>   2</c></rc>
    <rc><c>O </c><c>   2</c></rc>
    <rc><c>O </c><c>   2</c></rc>
    <rc><c>Ir</c><c>   3</c></rc>
    <rc><c>Ir</c><c>   3</c></rc>
    <rc><c>Ir</c><c>   3</c></rc>
    <rc><c>Ir</c><c>   3</c></rc>
    <rc><c>Ir</c><c>   3</c></rc>
    <rc><c>Ir</c><c>   3</c></rc>
    <rc><c>Ir</c><c>   3</c></rc>
   </set>
  </array>
  <array name="atomtypes" >
   <dimension dim="1">type</dimension>
   <field type="int">atomspertype</field>
   <field type="string">element</field>
   <field>mass</field>
   <field>valence</field>
   <field type="string">pseudopotential</field>
   <set>
    <rc><c>  18</c><c>Ce</c><c>    140.11500000</c><c>     12.00000000</c><c>  PAW_PBE Ce 23Dec2003                  </c></rc>
    <rc><c>  48</c><c>O </c><c>     16.00000000</c><c>      6.00000000</c><c>  PAW_PBE O 08Apr2002                   </c></rc>
    <rc><c>   7</c><c>Ir</c><c>    192.22000000</c><c>      9.00000000</c><c>  PAW_PBE Ir 06Sep2000                  </c></rc>
   </set>
  </array>
 </atominfo>
 <structure name="initialpos" >
  <crystal>
   <varray name="basis" >
    <v>      11.59819984       0.00000000       0.00000000 </v>
    <v>      -5.79909992      10.04433570       0.00000000 </v>
    <v>       0.00000000       0.00000000      21.04820061 </v>
   </varray>
   <i name="volume">   2452.03565684 </i>
   <varray name="rec_basis" >
    <v>       0.08622028       0.04977930       0.00000000 </v>
    <v>       0.00000000       0.09955860       0.00000000 </v>
    <v>       0.00000000       0.00000000       0.04751000 </v>
   </varray>
  </crystal>
  <varray name="positions" >
   <v>       0.00355000       0.99614000       0.45681000 </v>
   <v>       0.22222000       0.11111000       0.30996000 </v>
   <v>       0.32535000       0.99764000       0.46049000 </v>
   <v>       0.55556000       0.11111000       0.30996000 </v>
   <v>       0.66944000       0.00531000       0.46128000 </v>
   <v>       0.88889000       0.11111000       0.30996000 </v>
   <v>       0.99424000       0.33045000       0.46165000 </v>
   <v>       0.22222000       0.44444000       0.30996000 </v>
   <v>       0.34031000       0.34358000       0.46228000 </v>
   <v>       0.55556000       0.44444000       0.30996000 </v>
   <v>       0.67098000       0.32944000       0.45664000 </v>
   <v>       0.88889000       0.44444000       0.30996000 </v>
   <v>       0.00519000       0.67621000       0.45924000 </v>
   <v>       0.22222000       0.77778000       0.30996000 </v>
   <v>       0.33328000       0.66703000       0.45847000 </v>
   <v>       0.55556000       0.77778000       0.30996000 </v>
   <v>       0.65704000       0.65973000       0.46251000 </v>
   <v>       0.88889000       0.77778000       0.30996000 </v>
   <v>       0.01036000       0.99416000       0.58698000 </v>
   <v>       0.11111000       0.22222000       0.27247000 </v>
   <v>       0.22658000       0.11867000       0.42170000 </v>
   <v>       0.10952000       0.21810000       0.50284000 </v>
   <v>       0.00000000       0.00000000       0.34745000 </v>
   <v>       0.33679000       0.03234000       0.58178000 </v>
   <v>       0.44444000       0.22222000       0.27247000 </v>
   <v>       0.55234000       0.10748000       0.42117000 </v>
   <v>       0.44843000       0.21994000       0.49838000 </v>
   <v>       0.33333000       0.00000000       0.34745000 </v>
   <v>       0.63907000       0.97476000       0.58229000 </v>
   <v>       0.77778000       0.22222000       0.27247000 </v>
   <v>       0.89111000       0.10888000       0.42284000 </v>
   <v>       0.77710000       0.22213000       0.49045000 </v>
   <v>       0.66667000       0.00000000       0.34745000 </v>
   <v>       0.02319000       0.35952000       0.58092000 </v>
   <v>       0.11111000       0.55556000       0.27247000 </v>
   <v>       0.21300000       0.43127000       0.42216000 </v>
   <v>       0.10507000       0.55962000       0.50211000 </v>
   <v>       0.00000000       0.33333000       0.34745000 </v>
   <v>       0.31096000       0.34571000       0.59083000 </v>
   <v>       0.44444000       0.55556000       0.27247000 </v>
   <v>       0.55607000       0.44417000       0.41837000 </v>
   <v>       0.44186000       0.54615000       0.51936000 </v>
   <v>       0.33333000       0.33333000       0.34745000 </v>
   <v>       0.66479000       0.33801000       0.59004000 </v>
   <v>       0.77778000       0.55556000       0.27247000 </v>
   <v>       0.89287000       0.44679000       0.42076000 </v>
   <v>       0.78297000       0.55197000       0.49808000 </v>
   <v>       0.66667000       0.33333000       0.34745000 </v>
   <v>       0.96889000       0.66204000       0.58342000 </v>
   <v>       0.11111000       0.88889000       0.27247000 </v>
   <v>       0.22005000       0.78147000       0.42007000 </v>
   <v>       0.11006000       0.89029000       0.48937000 </v>
   <v>       0.00000000       0.66667000       0.34745000 </v>
   <v>       0.30006000       0.70033000       0.59351000 </v>
   <v>       0.44444000       0.88889000       0.27247000 </v>
   <v>       0.56880000       0.78642000       0.42250000 </v>
   <v>       0.44021000       0.89483000       0.50291000 </v>
   <v>       0.33333000       0.66667000       0.34745000 </v>
   <v>       0.65711000       0.69276000       0.58792000 </v>
   <v>       0.77778000       0.88889000       0.27247000 </v>
   <v>       0.88146000       0.77372000       0.42160000 </v>
   <v>       0.78251000       0.89105000       0.50266000 </v>
   <v>       0.66667000       0.66667000       0.34745000 </v>
   <v>       0.34134000       0.52208000       0.61020000 </v>
   <v>       0.61871000       0.48333000       0.60482000 </v>
   <v>       0.53267000       0.48676000       0.67821000 </v>
   <v>       0.49326000       0.50796000       0.59914000 </v>
   <v>       0.15674000       0.17333000       0.58472000 </v>
   <v>       0.49459000       0.18326000       0.58240000 </v>
   <v>       0.81823000       0.50554000       0.58234000 </v>
   <v>       0.83184000       0.84789000       0.58500000 </v>
   <v>       0.47030000       0.84261000       0.58700000 </v>
   <v>       0.15366000       0.53050000       0.58694000 </v>
  </varray>
 </structure>
 <calculation>
  <scstep>
   <time name="dav">    1.71    1.79</time>
   <time name="total">    2.91    2.99</time>
   <energy>
    <i name="alphaZ">   1192.14239942 </i>
    <i name="ewald"> 125156.80116925 </i>
    <i name="hartreedc">-164938.77136070 </i>
    <i name="XCdc">   1302.92743661 </i>
    <i name="pawpsdc">  35805.60743451 </i>
    <i name="pawaedc"> -35134.85540715 </i>
    <i name="eentropy">     -0.03551663 </i>
    <i name="bandstr">   2835.15981519 </i>
    <i name="atom">  43809.76760834 </i>
    <i name="e_fr_energy">  10028.74357883 </i>
    <i name="e_wo_entrp">  10028.77909546 </i>
    <i name="e_0_energy">  10028.76133715 </i>
   </energy>
  </scstep>
  <scstep>
   <time name="dav">    1.88    1.88</time>
   <time name="total">    1.88    1.88</time>
   <energy>
    <i name="e_fr_energy">   2763.19961410 </i>
    <i name="e_wo_entrp">   2763.31052131 </i>
    <i name="e_0_energy">   2763.25506771 </i>
   </energy>
  </scstep>
  <scstep>
   <time name="dav">    2.16    2.16</time>
   <time name="total">    2.16    2.16</time>
   <energy>
    <i name="e_fr_energy">   -254.10013187 </i>
    <i name="e_wo_entrp">   -254.01935394 </i>
    <i name="e_0_energy">   -254.05974290 </i>
   </energy>
  </scstep>
  <scstep>
   <time name="dav">    2.18    2.18</time>
   <time name="total">    2.18    2.18</time>
   <energy>
    <i name="e_fr_energy">   -651.89784273 </i>
    <i name="e_wo_entrp">   -651.88443050 </i>
    <i name="e_0_energy">   -651.89113662 </i>
   </energy>
  </scstep>
  <scstep>
   <time name="dav">    2.49    2.49</time>
   <time name="total">    3.16    3.17</time>
   <energy>
    <i name="e_fr_energy">   -672.97229253 </i>
    <i name="e_wo_entrp">   -672.93641034 </i>
    <i name="e_0_energy">   -672.95435144 </i>
   </energy>
  </scstep>
  <scstep>
   <time name="dav">    2.10    2.10</time>
   <time name="total">    3.82    3.82</time>
   <energy>
    <i name="e_fr_energy">   -531.29521472 </i>
    <i name="e_wo_entrp">   -531.20182298 </i>
    <i name="e_0_energy">   -531.24851885 </i>
   </energy>
  </scstep>
  <scstep>
   <time name="dav">    2.13    2.14</time>
   <time name="total">    3.84    3.85</time>
   <energy>
    <i name="e_fr_energy">   -549.00787351 </i>
    <i name="e_wo_entrp">   -548.99255591 </i>
    <i name="e_0_energy">   -549.00021471 </i>
   </energy>
  </scstep>
  <scstep>
   <time name="dav">    2.16    2.17</time>
   <time name="total">    3.89    3.89</time>
   <energy>
    <i name="e_fr_energy">   -549.73551390 </i>
    <i name="e_wo_entrp">   -549.72419966 </i>
    <i name="e_0_energy">   -549.72985678 </i>
   </energy>
  </scstep>
  <scstep>
   <time name="dav">    2.30    2.30</time>
   <time name="total">    4.05    4.05</time>
   <energy>
    <i name="e_fr_energy">   -534.46841430 </i>
    <i name="e_wo_entrp">   -534.43702403 </i>
    <i name="e_0_energy">   -534.45271916 </i>
   </energy>
  </scstep>
  <scstep>
   <time name="dav">    2.37    2.37</time>
   <time name="total">    4.09    4.09</time>
   <energy>
    <i name="e_fr_energy">   -506.04559805 </i>
    <i name="e_wo_entrp">   -506.04185477 </i>
    <i name="e_0_energy">   -506.04372641 </i>
   </energy>
  </scstep>
  <scstep>
   <time name="dav">    2.49    2.49</time>
   <time name="total">    4.21    4.21</time>
   <energy>
    <i name="e_fr_energy">   -503.56929446 </i>
    <i name="e_wo_entrp">   -503.52811880 </i>
    <i name="e_0_energy">   -503.54870663 </i>
   </energy>
  </scstep>
  <scstep>
   <time name="dav">    2.52    2.52</time>
   <time name="total">    4.25    4.25</time>
   <energy>
    <i name="e_fr_energy">   -500.13525605 </i>
    <i name="e_wo_entrp">   -500.13033144 </i>
    <i name="e_0_energy">   -500.13279375 </i>
   </energy>
  </scstep>
  <scstep>
   <time name="dav">    2.40    2.40</time>
   <time name="total">    4.16    4.16</time>
   <energy>
    <i name="e_fr_energy">   -500.60754852 </i>
    <i name="e_wo_entrp">   -500.58674978 </i>
    <i name="e_0_energy">   -500.59714915 </i>
   </energy>
  </scstep>
  <scstep>
   <time name="dav">    2.41    2.41</time>
   <time name="total">    4.15    4.15</time>
   <energy>
    <i name="e_fr_energy">   -501.39633419 </i>
    <i name="e_wo_entrp">   -501.37340624 </i>
    <i name="e_0_energy">   -501.38487022 </i>
   </energy>
  </scstep>
  <scstep>
   <time name="dav">    2.45    2.45</time>
   <time name="total">    4.18    4.18</time>
   <energy>
    <i name="e_fr_energy">   -504.23926703 </i>
    <i name="e_wo_entrp">   -504.21332466 </i>
    <i name="e_0_energy">   -504.22629585 </i>
   </energy>
  </scstep>
  <scstep>
   <time name="dav">    2.33    2.33</time>
   <time name="total">    4.08    4.08</time>
   <energy>
    <i name="e_fr_energy">   -505.36076495 </i>
    <i name="e_wo_entrp">   -505.34115205 </i>
    <i name="e_0_energy">   -505.35095850 </i>
   </energy>
  </scstep>
  <scstep>
   <time name="dav">    2.20    2.20</time>
   <time name="total">    3.95    3.95</time>
   <energy>
    <i name="e_fr_energy">   -510.45613885 </i>
    <i name="e_wo_entrp">   -510.41591012 </i>
    <i name="e_0_energy">   -510.43602448 </i>
   </energy>
  </scstep>
  <scstep>
   <time name="dav">    2.25    2.25</time>
   <time name="total">    3.96    3.96</time>
   <energy>
    <i name="e_fr_energy">   -508.50850488 </i>
    <i name="e_wo_entrp">   -508.50237398 </i>
    <i name="e_0_energy">   -508.50543943 </i>
   </energy>
  </scstep>
  <scstep>
   <time name="dav">    2.32    2.32</time>
   <time name="total">    4.04    4.04</time>
   <energy>
    <i name="e_fr_energy">   -513.02867549 </i>
    <i name="e_wo_entrp">   -513.00069028 </i>
    <i name="e_0_energy">   -513.01468288 </i>
   </energy>
  </scstep>
  <scstep>
   <time name="dav">    2.42    2.42</time>
   <time name="total">    4.14    4.14</time>
   <energy>
    <i name="e_fr_energy">   -515.72499851 </i>
    <i name="e_wo_entrp">   -515.71850657 </i>
    <i name="e_0_energy">   -515.72175254 </i>
   </energy>
  </scstep>
  <scstep>
   <time name="dav">    2.38    2.38</time>
   <time name="total">    4.13    4.14</time>
   <energy>
    <i name="e_fr_energy">   -520.95177093 </i>
    <i name="e_wo_entrp">   -520.92624896 </i>
    <i name="e_0_energy">   -520.93900994 </i>
   </energy>
  </scstep>
  <scstep>
   <time name="dav">    2.32    2.32</time>
   <time name="total">    4.05    4.05</time>
   <energy>
    <i name="e_fr_energy">   -521.49078526 </i>
    <i name="e_wo_entrp">   -521.43910490 </i>
    <i name="e_0_energy">   -521.46494508 </i>
   </energy>
  </scstep>
  <scstep>
   <time name="dav">    2.28    2.28</time>
   <time name="total">    4.00    4.01</time>
   <energy>
    <i name="e_fr_energy">   -521.66694319 </i>
    <i name="e_wo_entrp">   -521.62609256 </i>
    <i name="e_0_energy">   -521.64651788 </i>
   </energy>
  </scstep>
  <scstep>
   <time name="dav">    2.28    2.28</time>
   <time name="total">    4.02    4.03</time>
   <energy>
    <i name="e_fr_energy">   -521.53916726 </i>
    <i name="e_wo_entrp">   -521.49196743 </i>
    <i name="e_0_energy">   -521.51556735 </i>
   </energy>
  </scstep>
  <scstep>
   <time name="dav">    2.18    2.18</time>
   <time name="total">    3.90    3.90</time>
   <energy>
    <i name="e_fr_energy">   -521.48407297 </i>
    <i name="e_wo_entrp">   -521.43930307 </i>
    <i name="e_0_energy">   -521.46168802 </i>
   </energy>
  </scstep>
  <scstep>
   <time name="dav">    1.88    1.88</time>
   <time name="total">    3.61    3.61</time>
   <energy>
    <i name="e_fr_energy">   -521.46591383 </i>
    <i name="e_wo_entrp">   -521.42064427 </i>
    <i name="e_0_energy">   -521.44327905 </i>
   </energy>
  </scstep>
  <scstep>
   <time name="dav">    2.71    2.71</time>
   <time name="total">    4.45    4.46</time>
   <energy>
    <i name="e_fr_energy">   -521.45137316 </i>
    <i name="e_wo_entrp">   -521.40585031 </i>
    <i name="e_0_energy">   -521.42861174 </i>
   </energy>
  </scstep>
  <scstep>
   <time name="dav">    2.13    2.13</time>
   <time name="total">    3.85    3.85</time>
   <energy>
    <i name="e_fr_energy">   -521.49999512 </i>
    <i name="e_wo_entrp">   -521.46160623 </i>
    <i name="e_0_energy">   -521.48080068 </i>
   </energy>
  </scstep>
  <scstep>
   <time name="dav">    2.06    2.06</time>
   <time name="total">    3.87    3.88</time>
   <energy>
    <i name="e_fr_energy">   -521.56361781 </i>
    <i name="e_wo_entrp">   -521.51981846 </i>
    <i name="e_0_energy">   -521.54171814 </i>
   </energy>
  </scstep>
  <scstep>
   <time name="dav">    2.18    2.18</time>
   <time name="total">    3.96    3.96</time>
   <energy>
    <i name="e_fr_energy">   -521.56613022 </i>
    <i name="e_wo_entrp">   -521.52918561 </i>
    <i name="e_0_energy">   -521.54765791 </i>
   </energy>
  </scstep>
  <scstep>
   <time name="dav">    2.33    2.34</time>
   <time name="total">    4.04    4.05</time>
   <energy>
    <i name="e_fr_energy">   -521.63978327 </i>
    <i name="e_wo_entrp">   -521.60916587 </i>
    <i name="e_0_energy">   -521.62447457 </i>
   </energy>
  </scstep>
  <scstep>
   <time name="dav">    2.17    2.18</time>
   <time name="total">    3.91    3.91</time>
   <energy>
    <i name="e_fr_energy">   -521.70599692 </i>
    <i name="e_wo_entrp">   -521.67088544 </i>
    <i name="e_0_energy">   -521.68844118 </i>
   </energy>
  </scstep>
  <scstep>
   <time name="dav">    2.02    2.02</time>
   <time name="total">    3.79    3.79</time>
   <energy>
    <i name="e_fr_energy">   -521.76429497 </i>
    <i name="e_wo_entrp">   -521.73138098 </i>
    <i name="e_0_energy">   -521.74783797 </i>
   </energy>
  </scstep>
  <scstep>
   <time name="dav">    2.25    2.25</time>
   <time name="total">    4.00    4.01</time>
   <energy>
    <i name="e_fr_energy">   -521.88717020 </i>
    <i name="e_wo_entrp">   -521.85285739 </i>
    <i name="e_0_energy">   -521.87001380 </i>
   </energy>
  </scstep>
  <scstep>
   <time name="dav">    2.07    2.07</time>
   <time name="total">    3.80    3.80</time>
   <energy>
    <i name="e_fr_energy">   -521.89060633 </i>
    <i name="e_wo_entrp">   -521.85574466 </i>
    <i name="e_0_energy">   -521.87317550 </i>
   </energy>
  </scstep>
  <scstep>
   <time name="dav">    2.37    2.37</time>
   <time name="total">    4.10    4.10</time>
   <energy>
    <i name="e_fr_energy">   -521.87321252 </i>
    <i name="e_wo_entrp">   -521.84095122 </i>
    <i name="e_0_energy">   -521.85708187 </i>
   </energy>
  </scstep>
  <scstep>
   <time name="dav">    2.13    2.13</time>
   <time name="total">    3.92    3.92</time>
   <energy>
    <i name="e_fr_energy">   -521.87045829 </i>
    <i name="e_wo_entrp">   -521.83798716 </i>
    <i name="e_0_energy">   -521.85422272 </i>
   </energy>
  </scstep>
  <scstep>
   <time name="dav">    1.98    1.98</time>
   <time name="total">    3.72    3.72</time>
   <energy>
    <i name="e_fr_energy">   -521.87002163 </i>
    <i name="e_wo_entrp">   -521.83715866 </i>
    <i name="e_0_energy">   -521.85359014 </i>
   </energy>
  </scstep>
  <scstep>
   <time name="dav">    2.44    2.45</time>
   <time name="total">    4.16    4.16</time>
   <energy>
    <i name="e_fr_energy">   -521.89783650 </i>
    <i name="e_wo_entrp">   -521.87162777 </i>
    <i name="e_0_energy">   -521.88473214 </i>
   </energy>
  </scstep>
  <scstep>
   <time name="dav">    2.14    2.14</time>
   <time name="total">    3.87    3.87</time>
   <energy>
    <i name="e_fr_energy">   -521.91096716 </i>
    <i name="e_wo_entrp">   -521.88573863 </i>
    <i name="e_0_energy">   -521.89835289 </i>
   </energy>
  </scstep>
  <scstep>
   <time name="dav">    2.44    2.45</time>
   <time name="total">    4.16    4.17</time>
   <energy>
    <i name="e_fr_energy">   -522.03513260 </i>
    <i name="e_wo_entrp">   -522.01417073 </i>
    <i name="e_0_energy">   -522.02465167 </i>
   </energy>
  </scstep>
  <scstep>
   <time name="dav">    2.14    2.14</time>
   <time name="total">    3.86    3.87</time>
   <energy>
    <i name="e_fr_energy">   -522.05949900 </i>
    <i name="e_wo_entrp">   -522.03925573 </i>
    <i name="e_0_energy">   -522.04937737 </i>
   </energy>
  </scstep>
  <scstep>
   <time name="dav">    2.32    2.33</time>
   <time name="total">    4.05    4.05</time>
   <energy>
    <i name="e_fr_energy">   -522.10530502 </i>
    <i name="e_wo_entrp">   -522.08696141 </i>
    <i name="e_0_energy">   -522.09613321 </i>
   </energy>
  </scstep>
  <scstep>
   <time name="dav">    2.33    2.33</time>
   <time name="total">    4.06    4.06</time>
   <energy>
    <i name="e_fr_energy">   -522.40096564 </i>
    <i name="e_wo_entrp">   -522.38171011 </i>
    <i name="e_0_energy">   -522.39133788 </i>
   </energy>
  </scstep>
  <scstep>
   <time name="dav">    2.29    2.29</time>
   <time name="total">    4.04    4.04</time>
   <energy>
    <i name="e_fr_energy">   -522.41264837 </i>
    <i name="e_wo_entrp">   -522.39343856 </i>
    <i name="e_0_energy">   -522.40304347 </i>
   </energy>
  </scstep>
  <scstep>
   <time name="dav">    2.37    2.37</time>
   <time name="total">    4.11    4.11</time>
   <energy>
    <i name="e_fr_energy">   -522.56424316 </i>
    <i name="e_wo_entrp">   -522.52562790 </i>
    <i name="e_0_energy">   -522.54493553 </i>
   </energy>
  </scstep>
  <scstep>
   <time name="dav">    2.06    2.06</time>
   <time name="total">    3.79    3.79</time>
   <energy>
    <i name="e_fr_energy">   -522.54614907 </i>
    <i name="e_wo_entrp">   -522.50671865 </i>
    <i name="e_0_energy">   -522.52643386 </i>
   </energy>
  </scstep>
  <scstep>
   <time name="dav">    2.25    2.25</time>
   <time name="total">    4.03    4.03</time>
   <energy>
    <i name="e_fr_energy">   -522.53915481 </i>
    <i name="e_wo_entrp">   -522.50066704 </i>
    <i name="e_0_energy">   -522.51991093 </i>
   </energy>
  </scstep>
  <scstep>
   <time name="dav">    2.21    2.21</time>
   <time name="total">    3.95    3.95</time>
   <energy>
    <i name="e_fr_energy">   -522.48139355 </i>
    <i name="e_wo_entrp">   -522.45768985 </i>
    <i name="e_0_energy">   -522.46954170 </i>
   </energy>
  </scstep>
  <scstep>
   <time name="dav">    2.02    2.02</time>
   <time name="total">    3.74    3.74</time>
   <energy>
    <i name="e_fr_energy">   -522.48836500 </i>
    <i name="e_wo_entrp">   -522.46468436 </i>
    <i name="e_0_energy">   -522.47652468 </i>
   </energy>
  </scstep>
  <scstep>
   <time name="dav">    2.32    2.32</time>
   <time name="total">    4.04    4.05</time>
   <energy>
    <i name="e_fr_energy">   -521.28291902 </i>
    <i name="e_wo_entrp">   -521.26141363 </i>
    <i name="e_0_energy">   -521.27216632 </i>
   </energy>
  </scstep>
  <scstep>
   <time name="dav">    2.40    2.40</time>
   <time name="total">    4.13    4.13</time>
   <energy>
    <i name="e_fr_energy">   -521.55587853 </i>
    <i name="e_wo_entrp">   -521.54638857 </i>
    <i name="e_0_energy">   -521.55113355 </i>
   </energy>
  </scstep>
  <scstep>
   <time name="dav">    2.28    2.28</time>
   <time name="total">    4.04    4.04</time>
   <energy>
    <i name="e_fr_energy">   -522.19227079 </i>
    <i name="e_wo_entrp">   -522.18774075 </i>
    <i name="e_0_energy">   -522.19000577 </i>
   </energy>
  </scstep>
  <scstep>
   <time name="dav">    2.29    2.29</time>
   <time name="total">    4.02    4.02</time>
   <energy>
    <i name="e_fr_energy">   -522.31483463 </i>
    <i name="e_wo_entrp">   -522.31154554 </i>
    <i name="e_0_energy">   -522.31319009 </i>
   </energy>
  </scstep>
  <scstep>
   <time name="dav">    2.33    2.33</time>
   <time name="total">    4.07    4.07</time>
   <energy>
    <i name="e_fr_energy">   -522.76374342 </i>
    <i name="e_wo_entrp">   -522.76084335 </i>
    <i name="e_0_energy">   -522.76229339 </i>
   </energy>
  </scstep>
  <scstep>
   <time name="dav">    2.29    2.29</time>
   <time name="total">    4.02    4.02</time>
   <energy>
    <i name="e_fr_energy">   -522.25866662 </i>
    <i name="e_wo_entrp">   -522.23356815 </i>
    <i name="e_0_energy">   -522.24611738 </i>
   </energy>
  </scstep>
  <scstep>
   <time name="dav">    2.28    2.28</time>
   <time name="total">    4.00    4.00</time>
   <energy>
    <i name="e_fr_energy">   -523.40008830 </i>
    <i name="e_wo_entrp">   -523.39147836 </i>
    <i name="e_0_energy">   -523.39578333 </i>
   </energy>
  </scstep>
  <scstep>
   <time name="dav">    2.40    2.40</time>
   <time name="total">    4.15    4.15</time>
   <energy>
    <i name="e_fr_energy">   -524.01734714 </i>
    <i name="e_wo_entrp">   -524.01052502 </i>
    <i name="e_0_energy">   -524.01393608 </i>
   </energy>
  </scstep>
  <scstep>
   <time name="dav">    2.40    2.41</time>
   <time name="total">    4.13    4.13</time>
   <energy>
    <i name="e_fr_energy">   -524.45413824 </i>
    <i name="e_wo_entrp">   -524.44748805 </i>
    <i name="e_0_energy">   -524.45081315 </i>
   </energy>
  </scstep>
  <scstep>
   <time name="dav">    2.18    2.18</time>
   <time name="total">    3.96    3.96</time>
   <energy>
    <i name="e_fr_energy">   -525.02579637 </i>
    <i name="e_wo_entrp">   -525.02219682 </i>
    <i name="e_0_energy">   -525.02399659 </i>
   </energy>
  </scstep>
  <scstep>
   <time name="dav">    2.48    2.48</time>
   <time name="total">    4.22    4.22</time>
   <energy>
    <i name="e_fr_energy">   -525.03897394 </i>
    <i name="e_wo_entrp">   -525.01118000 </i>
    <i name="e_0_energy">   -525.02507697 </i>
   </energy>
  </scstep>
  <scstep>
   <time name="dav">    2.32    2.32</time>
   <time name="total">    4.09    4.09</time>
   <energy>
    <i name="e_fr_energy">   -525.19028187 </i>
    <i name="e_wo_entrp">   -525.16331498 </i>
    <i name="e_0_energy">   -525.17679842 </i>
   </energy>
  </scstep>
  <scstep>
   <time name="dav">    2.43    2.44</time>
   <time name="total">    4.21    4.21</time>
   <energy>
    <i name="e_fr_energy">   -525.20270983 </i>
    <i name="e_wo_entrp">   -525.17576267 </i>
    <i name="e_0_energy">   -525.18923625 </i>
   </energy>
  </scstep>
  <scstep>
   <time name="dav">    2.31    2.31</time>
   <time name="total">    4.10    4.10</time>
   <energy>
    <i name="e_fr_energy">   -525.18333981 </i>
    <i name="e_wo_entrp">   -525.16517187 </i>
    <i name="e_0_energy">   -525.17425584 </i>
   </energy>
  </scstep>
  <scstep>
   <time name="dav">    2.52    2.52</time>
   <time name="total">    4.25    4.25</time>
   <energy>
    <i name="e_fr_energy">   -525.15898360 </i>
    <i name="e_wo_entrp">   -525.14225795 </i>
    <i name="e_0_energy">   -525.15062077 </i>
   </energy>
  </scstep>
  <scstep>
   <time name="dav">    2.29    2.29</time>
   <time name="total">    4.00    4.00</time>
   <energy>
    <i name="e_fr_energy">   -525.14525850 </i>
    <i name="e_wo_entrp">   -525.12186066 </i>
    <i name="e_0_energy">   -525.13355958 </i>
   </energy>
  </scstep>
  <scstep>
   <time name="dav">    2.36    2.36</time>
   <time name="total">    4.08    4.08</time>
   <energy>
    <i name="e_fr_energy">   -525.24342573 </i>
    <i name="e_wo_entrp">   -525.24282770 </i>
    <i name="e_0_energy">   -525.24312672 </i>
   </energy>
  </scstep>
  <scstep>
   <time name="dav">    2.25    2.25</time>
   <time name="total">    3.98    3.98</time>
   <energy>
    <i name="e_fr_energy">   -525.27177648 </i>
    <i name="e_wo_entrp">   -525.27120044 </i>
    <i name="e_0_energy">   -525.27148846 </i>
   </energy>
  </scstep>
  <scstep>
   <time name="dav">    2.32    2.32</time>
   <time name="total">    4.10    4.11</time>
   <energy>
    <i name="e_fr_energy">   -525.24868590 </i>
    <i name="e_wo_entrp">   -525.24822060 </i>
    <i name="e_0_energy">   -525.24845325 </i>
   </energy>
  </scstep>
  <scstep>
   <time name="dav">    2.32    2.32</time>
   <time name="total">    4.08    4.08</time>
   <energy>
    <i name="e_fr_energy">   -525.10319707 </i>
    <i name="e_wo_entrp">   -525.10299012 </i>
    <i name="e_0_energy">   -525.10309359 </i>
   </energy>
  </scstep>
  <scstep>
   <time name="dav">    2.29    2.29</time>
   <time name="total">    4.03    4.03</time>
   <energy>
    <i name="e_fr_energy">   -525.32490833 </i>
    <i name="e_wo_entrp">   -525.30564175 </i>
    <i name="e_0_energy">   -525.31527504 </i>
   </energy>
  </scstep>
  <scstep>
   <time name="dav">    2.49    2.49</time>
   <time name="total">    4.24    4.24</time>
   <energy>
    <i name="e_fr_energy">   -525.49067688 </i>
    <i name="e_wo_entrp">   -525.47425136 </i>
    <i name="e_0_energy">   -525.48246412 </i>
   </energy>
  </scstep>
  <scstep>
   <time name="dav">    2.36    2.36</time>
   <time name="total">    4.14    4.14</time>
   <energy>
    <i name="e_fr_energy">   -525.67742490 </i>
    <i name="e_wo_entrp">   -525.66306560 </i>
    <i name="e_0_energy">   -525.67024525 </i>
   </energy>
  </scstep>
  <scstep>
   <time name="dav">    2.28    2.28</time>
   <time name="total">    4.02    4.03</time>
   <energy>
    <i name="e_fr_energy">   -525.86633060 </i>
    <i name="e_wo_entrp">   -525.84956150 </i>
    <i name="e_0_energy">   -525.85794605 </i>
   </energy>
  </scstep>
  <scstep>
   <time name="dav">    2.28    2.28</time>
   <time name="total">    4.02    4.02</time>
   <energy>
    <i name="e_fr_energy">   -525.92114404 </i>
    <i name="e_wo_entrp">   -525.89487014 </i>
    <i name="e_0_energy">   -525.90800709 </i>
   </energy>
  </scstep>
  <scstep>
   <time name="dav">    2.17    2.17</time>
   <time name="total">    3.95    3.95</time>
   <energy>
    <i name="e_fr_energy">   -526.00592850 </i>
    <i name="e_wo_entrp">   -526.00369829 </i>
    <i name="e_0_energy">   -526.00481340 </i>
   </energy>
  </scstep>
  <scstep>
   <time name="dav">    2.25    2.25</time>
   <time name="total">    4.01    4.01</time>
   <energy>
    <i name="e_fr_energy">   -526.33940038 </i>
    <i name="e_wo_entrp">   -526.33730575 </i>
    <i name="e_0_energy">   -526.33835307 </i>
   </energy>
  </scstep>
  <scstep>
   <time name="dav">    2.28    2.28</time>
   <time name="total">    4.03    4.03</time>
   <energy>
    <i name="e_fr_energy">   -526.36574700 </i>
    <i name="e_wo_entrp">   -526.36305798 </i>
    <i name="e_0_energy">   -526.36440249 </i>
   </energy>
  </scstep>
  <scstep>
   <time name="dav">    2.32    2.32</time>
   <time name="total">    4.04    4.04</time>
   <energy>
    <i name="e_fr_energy">   -525.99720103 </i>
    <i name="e_wo_entrp">   -525.99220888 </i>
    <i name="e_0_energy">   -525.99470496 </i>
   </energy>
  </scstep>
  <scstep>
   <time name="dav">    2.17    2.17</time>
   <time name="total">    3.92    3.92</time>
   <energy>
    <i name="e_fr_energy">   -525.56973263 </i>
    <i name="e_wo_entrp">   -525.56282209 </i>
    <i name="e_0_energy">   -525.56627736 </i>
   </energy>
  </scstep>
  <scstep>
   <time name="dav">    2.21    2.21</time>
   <time name="total">    3.93    3.93</time>
   <energy>
    <i name="e_fr_energy">   -526.05738294 </i>
    <i name="e_wo_entrp">   -526.05643793 </i>
    <i name="e_0_energy">   -526.05691043 </i>
   </energy>
  </scstep>
  <scstep>
   <time name="dav">    2.21    2.21</time>
   <time name="total">    3.97    3.97</time>
   <energy>
    <i name="e_fr_energy">   -526.23633465 </i>
    <i name="e_wo_entrp">   -526.23543109 </i>
    <i name="e_0_energy">   -526.23588287 </i>
   </energy>
  </scstep>
  <scstep>
   <time name="dav">    2.21    2.21</time>
   <time name="total">    3.96    3.96</time>
   <energy>
    <i name="e_fr_energy">   -525.97252819 </i>
    <i name="e_wo_entrp">   -525.97151645 </i>
    <i name="e_0_energy">   -525.97202232 </i>
   </energy>
  </scstep>
  <scstep>
   <time name="dav">    2.24    2.25</time>
   <time name="total">    3.98    3.99</time>
   <energy>
    <i name="e_fr_energy">   -525.74725039 </i>
    <i name="e_wo_entrp">   -525.74531349 </i>
    <i name="e_0_energy">   -525.74628194 </i>
   </energy>
  </scstep>
  <scstep>
   <time name="dav">    2.32    2.32</time>
   <time name="total">    4.05    4.05</time>
   <energy>
    <i name="e_fr_energy">   -525.59153970 </i>
    <i name="e_wo_entrp">   -525.58888952 </i>
    <i name="e_0_energy">   -525.59021461 </i>
   </energy>
  </scstep>
  <scstep>
   <time name="dav">    2.25    2.26</time>
   <time name="total">    3.99    4.00</time>
   <energy>
    <i name="e_fr_energy">   -526.32822860 </i>
    <i name="e_wo_entrp">   -526.32635296 </i>
    <i name="e_0_energy">   -526.32729078 </i>
   </energy>
  </scstep>
  <scstep>
   <time name="dav">    2.25    2.25</time>
   <time name="total">    3.97    3.97</time>
   <energy>
    <i name="e_fr_energy">   -526.35451586 </i>
    <i name="e_wo_entrp">   -526.35291339 </i>
    <i name="e_0_energy">   -526.35371462 </i>
   </energy>
  </scstep>
  <scstep>
   <time name="dav">    2.21    2.21</time>
   <time name="total">    3.94    3.94</time>
   <energy>
    <i name="e_fr_energy">   -526.32091262 </i>
    <i name="e_wo_entrp">   -526.31850204 </i>
    <i name="e_0_energy">   -526.31970733 </i>
   </energy>
  </scstep>
  <scstep>
   <time name="dav">    2.25    2.25</time>
   <time name="total">    3.98    3.99</time>
   <energy>
    <i name="e_fr_energy">   -526.32337595 </i>
    <i name="e_wo_entrp">   -526.32104496 </i>
    <i name="e_0_energy">   -526.32221045 </i>
   </energy>
  </scstep>
  <scstep>
   <time name="dav">    2.17    2.17</time>
   <time name="total">    3.28    3.28</time>
   <energy>
    <i name="alphaZ">   1192.14239942 </i>
    <i name="ewald"> 125156.80116925 </i>
    <i name="hartreedc">-166458.24953439 </i>
    <i name="XCdc">   1351.08309646 </i>
    <i name="pawpsdc">  45284.78255158 </i>
    <i name="pawaedc"> -44591.32562335 </i>
    <i name="eentropy">     -0.00251299 </i>
    <i name="bandstr">  -6271.18529872 </i>
    <i name="atom">  43809.76760834 </i>
    <i name="e_fr_energy">   -526.18614440 </i>
    <i name="e_wo_entrp">   -526.18363141 </i>
    <i name="e_0_energy">   -526.18488791 </i>
   </energy>
  </scstep>
  <structure>
   <crystal>
    <varray name="basis" >
     <v>      11.59819984       0.00000000       0.00000000 </v>
     <v>      -5.79909992      10.04433570       0.00000000 </v>
     <v>       0.00000000       0.00000000      21.04820061 </v>
    </varray>
    <i name="volume">   2452.03565684 </i>
    <varray name="rec_basis" >
     <v>       0.08622028       0.04977930       0.00000000 </v>
     <v>       0.00000000       0.09955860       0.00000000 </v>
     <v>       0.00000000       0.00000000       0.04751000 </v>
    </varray>
   </crystal>
   <varray name="positions" >
    <v>       0.00355000       0.99614000       0.45681000 </v>
    <v>       0.22222000       0.11111000       0.30996000 </v>
    <v>       0.32535000       0.99764000       0.46049000 </v>
    <v>       0.55556000       0.11111000       0.30996000 </v>
    <v>       0.66944000       0.00531000       0.46128000 </v>
    <v>       0.88889000       0.11111000       0.30996000 </v>
    <v>       0.99424000       0.33045000       0.46165000 </v>
    <v>       0.22222000       0.44444000       0.30996000 </v>
    <v>       0.34031000       0.34358000       0.46228000 </v>
    <v>       0.55556000       0.44444000       0.30996000 </v>
    <v>       0.67098000       0.32944000       0.45664000 </v>
    <v>       0.88889000       0.44444000       0.30996000 </v>
    <v>       0.00519000       0.67621000       0.45924000 </v>
    <v>       0.22222000       0.77778000       0.30996000 </v>
    <v>       0.33328000       0.66703000       0.45847000 </v>
    <v>       0.55556000       0.77778000       0.30996000 </v>
    <v>       0.65704000       0.65973000       0.46251000 </v>
    <v>       0.88889000       0.77778000       0.30996000 </v>
    <v>       0.01036000       0.99416000       0.58698000 </v>
    <v>       0.11111000       0.22222000       0.27247000 </v>
    <v>       0.22658000       0.11867000       0.42170000 </v>
    <v>       0.10952000       0.21810000       0.50284000 </v>
    <v>       0.00000000       0.00000000       0.34745000 </v>
    <v>       0.33679000       0.03234000       0.58178000 </v>
    <v>       0.44444000       0.22222000       0.27247000 </v>
    <v>       0.55234000       0.10748000       0.42117000 </v>
    <v>       0.44843000       0.21994000       0.49838000 </v>
    <v>       0.33333000       0.00000000       0.34745000 </v>
    <v>       0.63907000       0.97476000       0.58229000 </v>
    <v>       0.77778000       0.22222000       0.27247000 </v>
    <v>       0.89111000       0.10888000       0.42284000 </v>
    <v>       0.77710000       0.22213000       0.49045000 </v>
    <v>       0.66667000       0.00000000       0.34745000 </v>
    <v>       0.02319000       0.35952000       0.58092000 </v>
    <v>       0.11111000       0.55556000       0.27247000 </v>
    <v>       0.21300000       0.43127000       0.42216000 </v>
    <v>       0.10507000       0.55962000       0.50211000 </v>
    <v>       0.00000000       0.33333000       0.34745000 </v>
    <v>       0.31096000       0.34571000       0.59083000 </v>
    <v>       0.44444000       0.55556000       0.27247000 </v>
    <v>       0.55607000       0.44417000       0.41837000 </v>
    <v>       0.44186000       0.54615000       0.51936000 </v>
    <v>       0.33333000       0.33333000       0.34745000 </v>
    <v>       0.66479000       0.33801000       0.59004000 </v>
    <v>       0.77778000       0.55556000       0.27247000 </v>
    <v>       0.89287000       0.44679000       0.42076000 </v>
    <v>       0.78297000       0.55197000       0.49808000 </v>
    <v>       0.66667000       0.33333000       0.34745000 </v>
    <v>       0.96889000       0.66204000       0.58342000 </v>
    <v>       0.11111000       0.88889000       0.27247000 </v>
    <v>       0.22005000       0.78147000       0.42007000 </v>
    <v>       0.11006000       0.89029000       0.48937000 </v>
    <v>       0.00000000       0.66667000       0.34745000 </v>
    <v>       0.30006000       0.70033000       0.59351000 </v>
    <v>       0.44444000       0.88889000       0.27247000 </v>
    <v>       0.56880000       0.78642000       0.42250000 </v>
    <v>       0.44021000       0.89483000       0.50291000 </v>
    <v>       0.33333000       0.66667000       0.34745000 </v>
    <v>       0.65711000       0.69276000       0.58792000 </v>
    <v>       0.77778000       0.88889000       0.27247000 </v>
    <v>       0.88146000       0.77372000       0.42160000 </v>
    <v>       0.78251000       0.89105000       0.50266000 </v>
    <v>       0.66667000       0.66667000       0.34745000 </v>
    <v>       0.34134000       0.52208000       0.61020000 </v>
    <v>       0.61871000       0.48333000       0.60482000 </v>
    <v>       0.53267000       0.48676000       0.67821000 </v>
    <v>       0.49326000       0.50796000       0.59914000 </v>
    <v>       0.15674000       0.17333000       0.58472000 </v>
    <v>       0.49459000       0.18326000       0.58240000 </v>
    <v>       0.81823000       0.50554000       0.58234000 </v>
    <v>       0.83184000       0.84789000       0.58500000 </v>
    <v>       0.47030000       0.84261000       0.58700000 </v>
    <v>       0.15366000       0.53050000       0.58694000 </v>
   </varray>
  </structure>
  <varray name="forces" >
   <v>      -0.18382305      -0.22340373      -0.14302188 </v>
   <v>       0.17552431       0.25201819      -0.35659572 </v>
   <v>      -0.11322602      -0.03464528      -0.10057982 </v>
   <v>       0.00214796      -0.26259167      -0.38780437 </v>
   <v>       0.18666199      -0.19052558       0.18972066 </v>
   <v>      -0.15117012       0.00099831      -0.23746679 </v>
   <v>      -0.10056964      -0.09571426       0.32123877 </v>
   <v>       0.01989924      -0.16819751      -0.28125619 </v>
   <v>      -0.53664676      -1.05615782      -0.75961418 </v>
   <v>      -0.15580537       0.41749734      -0.57639297 </v>
   <v>       0.47203161      -0.06686375      -0.42298511 </v>
   <v>       0.16263476       0.13527926      -0.38849127 </v>
   <v>      -0.53003667      -0.14827871      -0.01955420 </v>
   <v>      -0.02420622       0.05193844      -0.51372554 </v>
   <v>       0.22695828       0.03343697       0.18246565 </v>
   <v>       0.46371132      -0.01872829       0.03855620 </v>
   <v>       0.71432011       1.04885580      -0.23834232 </v>
   <v>      -0.44730839      -0.42775855      -0.09009685 </v>
   <v>      -0.36662321       0.06359810       0.63896619 </v>
   <v>      -0.01148128      -0.03700580      -0.03253525 </v>
   <v>       0.08380184       0.13411473       0.11221039 </v>
   <v>       0.04535781       0.13397743      -0.04755547 </v>
   <v>       0.20142676      -0.00007947       0.27771906 </v>
   <v>      -0.07077893      -0.24789447       0.02703197 </v>
   <v>       0.02076665      -0.08804387      -0.01341114 </v>
   <v>      -0.06668254      -0.06802750       0.00339949 </v>
   <v>      -0.15754620       1.05149594       0.23042083 </v>
   <v>      -0.17198312       0.06519590       0.29510270 </v>
   <v>       0.29946628       0.21027025      -0.02176532 </v>
   <v>      -0.01223080      -0.00418904      -0.01517046 </v>
   <v>       0.02311375       0.02859260      -0.02051546 </v>
   <v>       0.08162390      -0.03968616       0.02061545 </v>
   <v>       0.02489787       0.32153341       0.29302124 </v>
   <v>      -0.21041145      -0.52497765      -0.17593284 </v>
   <v>       0.03134105      -0.01145498      -0.01396981 </v>
   <v>       0.52255722       0.66352863       0.43427749 </v>
   <v>      -0.26757944       0.24037243      -0.45067095 </v>
   <v>      -0.12858370      -0.15672803       0.28653334 </v>
   <v>       0.39489109      -2.66049244      -0.71092469 </v>
   <v>      -0.17145637      -0.03982803      -0.03377973 </v>
   <v>      -0.31149434      -0.83225512       0.88992335 </v>
   <v>       0.29517908       0.09825722      -5.48423155 </v>
   <v>      -0.05728663       0.20361899       0.43199471 </v>
   <v>       1.08247040      -2.68789194      -0.86004141 </v>
   <v>       0.13078746      -0.07384184      -0.03612796 </v>
   <v>       0.02062356       0.00897927      -0.03667288 </v>
   <v>      -0.30091471      -0.63478671       0.03957216 </v>
   <v>       0.22306379      -0.14815865       0.36496649 </v>
   <v>       0.39934158       0.61761467       0.12056640 </v>
   <v>       0.01315123       0.06470291      -0.00370567 </v>
   <v>       0.56532876      -0.23035653       0.23993728 </v>
   <v>       0.15302688       0.04975544       0.02274414 </v>
   <v>      -0.00206519       0.09372400       0.22235973 </v>
   <v>      -0.38398046       0.89317305       0.21552787 </v>
   <v>      -0.04135546       0.01949633      -0.01625495 </v>
   <v>      -1.21600674      -0.01088494       0.04678149 </v>
   <v>       0.03951563      -0.36536395      -0.01891681 </v>
   <v>       0.08883728      -0.15981725       0.23933324 </v>
   <v>       0.04844803       2.02037968      -0.09385614 </v>
   <v>       0.02811952       0.16277961      -0.05747642 </v>
   <v>       0.77117420       0.40010384      -0.19715135 </v>
   <v>       0.31539150       0.72691901       0.46908350 </v>
   <v>      -0.17754532      -0.13109185      -0.54560281 </v>
   <v>      -4.37556449       0.85128596       3.72399099 </v>
   <v>      12.30508830      -2.27966247       0.73825409 </v>
   <v>      -0.08345498      -0.61529990       6.13419622 </v>
   <v>     -11.52929607       3.21394535      -3.42783830 </v>
   <v>       0.03266733      -0.55300954       0.23722208 </v>
   <v>       0.25086498       0.28724376       0.27485695 </v>
   <v>       0.35991418       0.54636416      -0.04778019 </v>
   <v>      -0.24259369       0.00094545      -0.43909031 </v>
   <v>      -0.52397556       0.32121467      -0.43220465 </v>
   <v>       1.84755542      -0.13951383      -0.01348042 </v>
  </varray>
  <varray name="stress" >
   <v>      17.09173096      -9.06051062      -2.35757955 </v>
   <v>      -9.06085554       2.22846917      -1.38398874 </v>
   <v>      -2.35711462      -1.38449964      24.06152336 </v>
  </varray>
  <energy>
   <i name="e_fr_energy">   -526.18614440 </i>
   <i name="e_wo_entrp">   -526.18363141 </i>
   <i name="e_0_energy">   -526.18488791 </i>
  </energy>
  <time name="totalsc">  365.23  365.54</time>
 </calculation>
 <calculation>
  <scstep>
   <time name="dav">    1.58    1.58</time>
   <time name="total">    3.33    3.36</time>
   <energy>
    <i name="alphaZ">   1192.14239942 </i>
    <i name="ewald"> 124623.98722150 </i>
    <i name="hartreedc">-165922.40831504 </i>
    <i name="XCdc">   1351.31329846 </i>
    <i name="pawpsdc">  45264.75425111 </i>
    <i name="pawaedc"> -44574.56555673 </i>
    <i name="eentropy">     -0.03322339 </i>
    <i name="bandstr">  -6237.22959741 </i>
    <i name="atom">  43809.76760834 </i>
    <i name="e_fr_energy">   -492.27191375 </i>
    <i name="e_wo_entrp">   -492.23869035 </i>
    <i name="e_0_energy">   -492.25530205 </i>
   </energy>
  </scstep>
  <scstep>
   <time name="dav">    2.27    2.27</time>
   <time name="total">    4.04    4.04</time>
   <energy>
    <i name="e_fr_energy">   -556.61350947 </i>
    <i name="e_wo_entrp">   -556.58123327 </i>
    <i name="e_0_energy">   -556.59737137 </i>
   </energy>
  </scstep>
  <scstep>
   <time name="dav">    2.10    2.10</time>
   <time name="total">    3.83    3.83</time>
   <energy>
    <i name="e_fr_energy">   -550.66860498 </i>
    <i name="e_wo_entrp">   -550.65486794 </i>
    <i name="e_0_energy">   -550.66173646 </i>
   </energy>
  </scstep>
  <scstep>
   <time name="dav">    2.44    2.44</time>
   <time name="total">    4.20    4.20</time>
   <energy>
    <i name="e_fr_energy">   -537.74793495 </i>
    <i name="e_wo_entrp">   -537.73229839 </i>
    <i name="e_0_energy">   -537.74011667 </i>
   </energy>
  </scstep>
  <scstep>
   <time name="dav">    2.36    2.36</time>
   <time name="total">    4.09    4.10</time>
   <energy>
    <i name="e_fr_energy">   -527.45933734 </i>
    <i name="e_wo_entrp">   -527.44912817 </i>
    <i name="e_0_energy">   -527.45423276 </i>
   </energy>
  </scstep>
  <scstep>
   <time name="dav">    2.40    2.40</time>
   <time name="total">    4.14    4.14</time>
   <energy>
    <i name="e_fr_energy">   -526.21158045 </i>
    <i name="e_wo_entrp">   -526.18124558 </i>
    <i name="e_0_energy">   -526.19641301 </i>
   </energy>
  </scstep>
  <scstep>
   <time name="dav">    2.34    2.34</time>
   <time name="total">    4.06    4.06</time>
   <energy>
    <i name="e_fr_energy">   -527.27660596 </i>
    <i name="e_wo_entrp">   -527.24979417 </i>
    <i name="e_0_energy">   -527.26320006 </i>
   </energy>
  </scstep>
  <scstep>
   <time name="dav">    2.50    2.50</time>
   <time name="total">    4.24    4.24</time>
   <energy>
    <i name="e_fr_energy">   -527.19149821 </i>
    <i name="e_wo_entrp">   -527.16291561 </i>
    <i name="e_0_energy">   -527.17720691 </i>
   </energy>
  </scstep>
  <scstep>
   <time name="dav">    2.37    2.37</time>
   <time name="total">    4.09    4.09</time>
   <energy>
    <i name="e_fr_energy">   -526.70707736 </i>
    <i name="e_wo_entrp">   -526.65641772 </i>
    <i name="e_0_energy">   -526.68174754 </i>
   </energy>
  </scstep>
  <scstep>
   <time name="dav">    2.32    2.33</time>
   <time name="total">    4.06    4.06</time>
   <energy>
    <i name="e_fr_energy">   -526.93989920 </i>
    <i name="e_wo_entrp">   -526.93984172 </i>
    <i name="e_0_energy">   -526.93987046 </i>
   </energy>
  </scstep>
  <scstep>
   <time name="dav">    2.14    2.14</time>
   <time name="total">    3.87    3.88</time>
   <energy>
    <i name="e_fr_energy">   -526.95428520 </i>
    <i name="e_wo_entrp">   -526.95428520 </i>
    <i name="e_0_energy">   -526.95428520 </i>
   </energy>
  </scstep>
  <scstep>
   <time name="dav">    2.19    2.19</time>
   <time name="total">    3.90    3.90</time>
   <energy>
    <i name="e_fr_energy">   -526.94366683 </i>
    <i name="e_wo_entrp">   -526.94366679 </i>
    <i name="e_0_energy">   -526.94366681 </i>
   </energy>
  </scstep>
  <scstep>
   <time name="dav">    2.29    2.29</time>
   <time name="total">    4.03    4.03</time>
   <energy>
    <i name="e_fr_energy">   -526.86742315 </i>
    <i name="e_wo_entrp">   -526.86742293 </i>
    <i name="e_0_energy">   -526.86742304 </i>
   </energy>
  </scstep>
  <scstep>
   <time name="dav">    2.36    2.36</time>
   <time name="total">    4.11    4.11</time>
   <energy>
    <i name="e_fr_energy">   -526.86562964 </i>
    <i name="e_wo_entrp">   -526.86562880 </i>
    <i name="e_0_energy">   -526.86562922 </i>
   </energy>
  </scstep>
  <scstep>
   <time name="dav">    2.37    2.37</time>
   <time name="total">    4.11    4.11</time>
   <energy>
    <i name="e_fr_energy">   -526.91052845 </i>
    <i name="e_wo_entrp">   -526.91052788 </i>
    <i name="e_0_energy">   -526.91052816 </i>
   </energy>
  </scstep>
  <scstep>
   <time name="dav">    2.21    2.21</time>
   <time name="total">    3.94    3.94</time>
   <energy>
    <i name="e_fr_energy">   -526.97127123 </i>
    <i name="e_wo_entrp">   -526.97126227 </i>
    <i name="e_0_energy">   -526.97126675 </i>
   </energy>
  </scstep>
  <scstep>
   <time name="dav">    2.30    2.30</time>
   <time name="total">    4.01    4.01</time>
   <energy>
    <i name="e_fr_energy">   -526.99743121 </i>
    <i name="e_wo_entrp">   -526.99741701 </i>
    <i name="e_0_energy">   -526.99742411 </i>
   </energy>
  </scstep>
  <scstep>
   <time name="dav">    2.37    2.37</time>
   <time name="total">    4.08    4.08</time>
   <energy>
    <i name="e_fr_energy">   -527.00363673 </i>
    <i name="e_wo_entrp">   -527.00362398 </i>
    <i name="e_0_energy">   -527.00363035 </i>
   </energy>
  </scstep>
  <scstep>
   <time name="dav">    2.33    2.33</time>
   <time name="total">    4.08    4.09</time>
   <energy>
    <i name="e_fr_energy">   -526.99734381 </i>
    <i name="e_wo_entrp">   -526.99732897 </i>
    <i name="e_0_energy">   -526.99733639 </i>
   </energy>
  </scstep>
  <scstep>
   <time name="dav">    2.06    2.06</time>
   <time name="total">    3.81    3.82</time>
   <energy>
    <i name="e_fr_energy">   -526.97640386 </i>
    <i name="e_wo_entrp">   -526.97636439 </i>
    <i name="e_0_energy">   -526.97638412 </i>
   </energy>
  </scstep>
  <scstep>
   <time name="dav">    2.06    2.06</time>
   <time name="total">    3.80    3.80</time>
   <energy>
    <i name="e_fr_energy">   -526.94519278 </i>
    <i name="e_wo_entrp">   -526.94511088 </i>
    <i name="e_0_energy">   -526.94515183 </i>
   </energy>
  </scstep>
  <scstep>
   <time name="dav">    2.07    2.07</time>
   <time name="total">    3.82    3.82</time>
   <energy>
    <i name="e_fr_energy">   -526.93400250 </i>
    <i name="e_wo_entrp">   -526.93389371 </i>
    <i name="e_0_energy">   -526.93394810 </i>
   </energy>
  </scstep>
  <scstep>
   <time name="dav">    2.10    2.10</time>
   <time name="total">    3.85    3.85</time>
   <energy>
    <i name="e_fr_energy">   -526.93059090 </i>
    <i name="e_wo_entrp">   -526.93047175 </i>
    <i name="e_0_energy">   -526.93053133 </i>
   </energy>
  </scstep>
  <scstep>
   <time name="dav">    1.80    1.80</time>
   <time name="total">    3.53    3.53</time>
   <energy>
    <i name="e_fr_energy">   -526.93975557 </i>
    <i name="e_wo_entrp">   -526.93963635 </i>
    <i name="e_0_energy">   -526.93969596 </i>
   </energy>
  </scstep>
  <scstep>
   <time name="dav">    2.40    2.40</time>
   <time name="total">    4.17    4.17</time>
   <energy>
    <i name="e_fr_energy">   -526.94435516 </i>
    <i name="e_wo_entrp">   -526.94423667 </i>
    <i name="e_0_energy">   -526.94429592 </i>
   </energy>
  </scstep>
  <scstep>
   <time name="dav">    1.99    1.99</time>
   <time name="total">    3.74    3.74</time>
   <energy>
    <i name="e_fr_energy">   -526.99633582 </i>
    <i name="e_wo_entrp">   -526.99622064 </i>
    <i name="e_0_energy">   -526.99627823 </i>
   </energy>
  </scstep>
  <scstep>
   <time name="dav">    2.11    2.11</time>
   <time name="total">    3.84    3.84</time>
   <energy>
    <i name="e_fr_energy">   -527.13945182 </i>
    <i name="e_wo_entrp">   -527.13918997 </i>
    <i name="e_0_energy">   -527.13932090 </i>
   </energy>
  </scstep>
  <scstep>
   <time name="dav">    2.17    2.17</time>
   <time name="total">    3.91    3.91</time>
   <energy>
    <i name="e_fr_energy">   -527.19642661 </i>
    <i name="e_wo_entrp">   -527.19612046 </i>
    <i name="e_0_energy">   -527.19627354 </i>
   </energy>
  </scstep>
  <scstep>
   <time name="dav">    2.17    2.17</time>
   <time name="total">    3.90    3.90</time>
   <energy>
[...]
    <i name="e_0_energy">   -537.97619326 </i>
   </energy>
  </scstep>
  <scstep>
   <time name="dav">    2.29    2.30</time>
   <time name="total">    4.06    4.06</time>
   <energy>
    <i name="e_fr_energy">   -537.97390431 </i>
    <i name="e_wo_entrp">   -537.97390424 </i>
    <i name="e_0_energy">   -537.97390427 </i>
   </energy>
  </scstep>
  <scstep>
   <time name="dav">    2.25    2.25</time>
   <time name="total">    3.95    3.96</time>
   <energy>
    <i name="e_fr_energy">   -537.97396672 </i>
    <i name="e_wo_entrp">   -537.97396668 </i>
    <i name="e_0_energy">   -537.97396670 </i>
   </energy>
  </scstep>
  <scstep>
   <time name="dav">    2.40    2.40</time>
   <time name="total">    4.14    4.14</time>
   <energy>
    <i name="e_fr_energy">   -537.97386080 </i>
    <i name="e_wo_entrp">   -537.97386076 </i>
    <i name="e_0_energy">   -537.97386078 </i>
   </energy>
  </scstep>
  <scstep>
   <time name="dav">    2.39    2.40</time>
   <time name="total">    4.11    4.13</time>
   <energy>
    <i name="e_fr_energy">   -537.97389494 </i>
    <i name="e_wo_entrp">   -537.97389490 </i>
    <i name="e_0_energy">   -537.97389492 </i>
   </energy>
  </scstep>
  <scstep>
   <time name="dav">    2.63    2.63</time>
   <time name="total">    4.37    4.37</time>
   <energy>
    <i name="e_fr_energy">   -537.97393602 </i>
    <i name="e_wo_entrp">   -537.97393597 </i>
    <i name="e_0_energy">   -537.97393599 </i>
   </energy>
  </scstep>
  <scstep>
   <time name="dav">    2.44    2.44</time>
   <time name="total">    4.18    4.18</time>
   <energy>
    <i name="e_fr_energy">   -537.97395589 </i>
    <i name="e_wo_entrp">   -537.97395584 </i>
    <i name="e_0_energy">   -537.97395587 </i>
   </energy>
  </scstep>
  <scstep>
   <time name="dav">    2.21    2.21</time>
   <time name="total">    3.92    3.93</time>
   <energy>
    <i name="e_fr_energy">   -537.97398132 </i>
    <i name="e_wo_entrp">   -537.97398126 </i>
    <i name="e_0_energy">   -537.97398129 </i>
   </energy>
  </scstep>
  <scstep>
   <time name="dav">    2.21    2.21</time>
   <time name="total">    3.99    4.00</time>
   <energy>
    <i name="e_fr_energy">   -537.97400166 </i>
    <i name="e_wo_entrp">   -537.97400160 </i>
    <i name="e_0_energy">   -537.97400163 </i>
   </energy>
  </scstep>
  <scstep>
   <time name="dav">    1.99    1.99</time>
   <time name="total">    3.69    3.69</time>
   <energy>
    <i name="e_fr_energy">   -537.97401761 </i>
    <i name="e_wo_entrp">   -537.97401755 </i>
    <i name="e_0_energy">   -537.97401758 </i>
   </energy>
  </scstep>
  <scstep>
   <time name="dav">    2.02    2.02</time>
   <time name="total">    3.74    3.75</time>
   <energy>
    <i name="e_fr_energy">   -537.97403395 </i>
    <i name="e_wo_entrp">   -537.97403389 </i>
    <i name="e_0_energy">   -537.97403392 </i>
   </energy>
  </scstep>
  <scstep>
   <time name="dav">    1.78    1.78</time>
   <time name="total">    3.47    3.48</time>
   <energy>
    <i name="e_fr_energy">   -537.97404647 </i>
    <i name="e_wo_entrp">   -537.97404642 </i>
    <i name="e_0_energy">   -537.97404644 </i>
   </energy>
  </scstep>
  <scstep>
   <time name="dav">    1.49    1.49</time>
   <time name="total">    3.23    3.23</time>
   <energy>
    <i name="e_fr_energy">   -537.97405485 </i>
    <i name="e_wo_entrp">   -537.97405479 </i>
    <i name="e_0_energy">   -537.97405482 </i>
   </energy>
  </scstep>
  <scstep>
   <time name="dav">    1.49    1.50</time>
   <time name="total">    3.21    3.21</time>
   <energy>
    <i name="e_fr_energy">   -537.97406153 </i>
    <i name="e_wo_entrp">   -537.97406148 </i>
    <i name="e_0_energy">   -537.97406150 </i>
   </energy>
  </scstep>
  <scstep>
   <time name="dav">    1.47    1.47</time>
   <time name="total">    3.22    3.22</time>
   <energy>
    <i name="e_fr_energy">   -537.97406937 </i>
    <i name="e_wo_entrp">   -537.97406932 </i>
    <i name="e_0_energy">   -537.97406935 </i>
   </energy>
  </scstep>
  <scstep>
   <time name="dav">    1.50    1.50</time>
   <time name="total">    3.20    3.20</time>
   <energy>
    <i name="e_fr_energy">   -537.97407360 </i>
    <i name="e_wo_entrp">   -537.97407354 </i>
    <i name="e_0_energy">   -537.97407357 </i>
   </energy>
  </scstep>
  <scstep>
   <time name="dav">    1.32    1.32</time>
   <time name="total">    3.05    3.05</time>
   <energy>
    <i name="e_fr_energy">   -537.97407554 </i>
    <i name="e_wo_entrp">   -537.97407548 </i>
    <i name="e_0_energy">   -537.97407551 </i>
   </energy>
  </scstep>
  <scstep>
   <time name="dav">    1.29    1.29</time>
   <time name="total">    3.04    3.04</time>
   <energy>
    <i name="e_fr_energy">   -537.97407742 </i>
    <i name="e_wo_entrp">   -537.97407736 </i>
    <i name="e_0_energy">   -537.97407739 </i>
   </energy>
  </scstep>
  <scstep>
   <time name="dav">    1.28    1.28</time>
   <time name="total">    3.00    3.00</time>
   <energy>
    <i name="e_fr_energy">   -537.97407985 </i>
    <i name="e_wo_entrp">   -537.97407980 </i>
    <i name="e_0_energy">   -537.97407983 </i>
   </energy>
  </scstep>
  <scstep>
   <time name="dav">    1.29    1.29</time>
   <time name="total">    3.02    3.03</time>
   <energy>
    <i name="e_fr_energy">   -537.97408161 </i>
    <i name="e_wo_entrp">   -537.97408155 </i>
    <i name="e_0_energy">   -537.97408158 </i>
   </energy>
  </scstep>
  <scstep>
   <time name="dav">    1.28    1.28</time>
   <time name="total">    2.38    2.38</time>
   <energy>
    <i name="alphaZ">   1192.14239942 </i>
    <i name="ewald"> 115166.24830583 </i>
    <i name="hartreedc">-156409.19824263 </i>
    <i name="XCdc">   1345.08825467 </i>
    <i name="pawpsdc">  44630.70452440 </i>
    <i name="pawaedc"> -43945.02419429 </i>
    <i name="eentropy">     -0.00000005 </i>
    <i name="bandstr">  -6327.70273811 </i>
    <i name="atom">  43809.76760834 </i>
    <i name="e_fr_energy">   -537.97408242 </i>
    <i name="e_wo_entrp">   -537.97408237 </i>
    <i name="e_0_energy">   -537.97408240 </i>
   </energy>
  </scstep>
  <structure>
   <crystal>
    <varray name="basis" >
     <v>      11.59819984       0.00000000       0.00000000 </v>
     <v>      -5.79909992      10.04433570       0.00000000 </v>
     <v>       0.00000000       0.00000000      21.04820061 </v>
    </varray>
    <i name="volume">   2452.03565684 </i>
    <varray name="rec_basis" >
     <v>       0.08622028       0.04977930       0.00000000 </v>
     <v>       0.00000000       0.09955860       0.00000000 </v>
     <v>       0.00000000       0.00000000       0.04751000 </v>
    </varray>
   </crystal>
   <varray name="positions" >
    <v>       0.01161062       0.99494435       0.45626781 </v>
    <v>       0.23110749       0.11232729       0.30535047 </v>
    <v>       0.33693826       0.00000696       0.45461851 </v>
    <v>       0.56351719       0.11022929       0.30126504 </v>
    <v>       0.68216821       0.00654348       0.45137070 </v>
    <v>       0.89994001       0.11262693       0.30516062 </v>
    <v>       0.00185607       0.33168559       0.45934336 </v>
    <v>       0.23069675       0.44279881       0.30671837 </v>
    <v>       0.33980523       0.33595434       0.46211032 </v>
    <v>       0.55921609       0.44351566       0.30398105 </v>
    <v>       0.67905604       0.32732396       0.44792200 </v>
    <v>       0.89918960       0.44529527       0.30173317 </v>
    <v>       0.01507514       0.67769489       0.45148552 </v>
    <v>       0.22988639       0.77837954       0.30346735 </v>
    <v>       0.34073979       0.66485364       0.45725307 </v>
    <v>       0.56209763       0.77513589       0.30540995 </v>
    <v>       0.66866718       0.66118359       0.45834665 </v>
    <v>       0.89431865       0.77626504       0.30379035 </v>
    <v>       0.96077362       0.00685294       0.60347818 </v>
    <v>       0.11936240       0.22068393       0.26782551 </v>
    <v>       0.23417946       0.12351299       0.41975699 </v>
    <v>       0.10808427       0.21053554       0.50186619 </v>
    <v>       0.00983000       0.00019865       0.34580541 </v>
    <v>       0.30869996       0.06701103       0.62075489 </v>
    <v>       0.45172814       0.22446195       0.26628297 </v>
    <v>       0.56550446       0.11120683       0.41150603 </v>
    <v>       0.47090217       0.22287582       0.51087860 </v>
    <v>       0.34004894       0.00126442       0.33903225 </v>
    <v>       0.62089307       0.97643470       0.61937138 </v>
    <v>       0.78836035       0.22143592       0.26555659 </v>
    <v>       0.90080125       0.11049792       0.41934903 </v>
    <v>       0.78016707       0.21926613       0.48838007 </v>
    <v>       0.68040892       0.00375621       0.34313713 </v>
    <v>       0.03230378       0.36318422       0.57602116 </v>
    <v>       0.11723012       0.55591032       0.26726446 </v>
    <v>       0.22206639       0.43353176       0.42273507 </v>
    <v>       0.10480305       0.56395898       0.50189175 </v>
    <v>       0.00849220       0.33177768       0.34432465 </v>
    <v>       0.31212370       0.31067110       0.57681965 </v>
    <v>       0.45047390       0.55290176       0.26593620 </v>
    <v>       0.55391425       0.42745992       0.41943883 </v>
    <v>       0.44702458       0.54513662       0.51008604 </v>
    <v>       0.34032259       0.33642812       0.34475601 </v>
    <v>       0.62830327       0.23226699       0.62671053 </v>
    <v>       0.78637578       0.55800705       0.26574759 </v>
    <v>       0.90000851       0.44409424       0.41397218 </v>
    <v>       0.79034140       0.54045648       0.49458380 </v>
    <v>       0.67696202       0.33433087       0.34009249 </v>
    <v>       0.96249705       0.65841017       0.60480930 </v>
    <v>       0.11696827       0.88901704       0.26630566 </v>
    <v>       0.22916313       0.77569160       0.41345313 </v>
    <v>       0.11000319       0.88372173       0.49066392 </v>
    <v>       0.00604807       0.66744394       0.34295449 </v>
    <v>       0.30221794       0.71830501       0.58371402 </v>
    <v>       0.45625542       0.89006611       0.26691886 </v>
    <v>       0.56943281       0.78722801       0.41750119 </v>
    <v>       0.46515815       0.90621815       0.50005746 </v>
    <v>       0.34144764       0.66143308       0.34234938 </v>
    <v>       0.61879394       0.72729717       0.62420011 </v>
    <v>       0.78625564       0.88763690       0.26811856 </v>
    <v>       0.89414649       0.77802492       0.41720180 </v>
    <v>       0.78697585       0.89618947       0.50652988 </v>
    <v>       0.66817147       0.66068758       0.34295699 </v>
    <v>       0.30193480       0.52516664       0.63520700 </v>
    <v>       0.61335363       0.49763212       0.58602110 </v>
    <v>       0.46917367       0.47137923       0.69238640 </v>
    <v>       0.45283247       0.50041586       0.61004381 </v>
    <v>       0.12760196       0.16104638       0.58944349 </v>
    <v>       0.47084087       0.16866195       0.59724798 </v>
    <v>       0.79474820       0.56743880       0.58589261 </v>
    <v>       0.78248348       0.85957580       0.59862466 </v>
    <v>       0.46499225       0.87014178       0.58917934 </v>
    <v>       0.17407762       0.52566500       0.58334292 </v>
   </varray>
  </structure>
  <varray name="forces" >
   <v>      -0.10166419      -0.06280194      -0.11800921 </v>
   <v>      -0.09434876       0.01600406      -0.00954226 </v>
   <v>      -0.02517552      -0.16184459      -0.13958679 </v>
   <v>       0.02900902       0.01288799       0.06621532 </v>
   <v>      -0.07414547      -0.00244116      -0.02982743 </v>
   <v>       0.03320782      -0.03650268      -0.00940180 </v>
   <v>      -0.03259759       0.08150700      -0.02864464 </v>
   <v>      -0.06679169      -0.00260256       0.05212811 </v>
   <v>      -0.10269857      -0.04394164       0.02391992 </v>
   <v>       0.06561068       0.10334520       0.10493574 </v>
   <v>       0.11099390      -0.07074483      -0.00243008 </v>
   <v>      -0.00878153      -0.04900538       0.17647732 </v>
   <v>       0.02439288      -0.24365621       0.14254873 </v>
   <v>       0.02725456       0.01755260       0.08281505 </v>
   <v>       0.04648830       0.02151035       0.02270291 </v>
   <v>       0.15813328      -0.00764406       0.09782327 </v>
   <v>       0.01049769       0.04589107       0.05915562 </v>
   <v>      -0.08361653       0.02386033       0.09176880 </v>
   <v>      -0.03454616      -0.03148539       0.00751050 </v>
   <v>      -0.00828805       0.00316287      -0.07523061 </v>
   <v>       0.02069777      -0.03408935       0.05056516 </v>
   <v>      -0.12679543       0.02260526       0.03065703 </v>
   <v>       0.08773341      -0.00004147      -0.03594399 </v>
   <v>      -0.32635695       0.04169581       0.08374992 </v>
   <v>      -0.01069083       0.01926810      -0.01085351 </v>
   <v>      -0.05373216       0.04203226       0.02657865 </v>
   <v>       0.00176218       0.02518896      -0.04248583 </v>
   <v>      -0.02713449      -0.00676793       0.10142826 </v>
   <v>      -0.01272519      -0.06437246       0.20260337 </v>
   <v>      -0.04283879       0.06522566      -0.02033667 </v>
   <v>      -0.00421225      -0.07242503      -0.10231608 </v>
   <v>       0.08618529       0.03181908       0.04681135 </v>
   <v>      -0.02508651      -0.01454666      -0.07383712 </v>
   <v>       0.03281195      -0.02451918       0.03531398 </v>
   <v>       0.01149803      -0.00081252      -0.05065983 </v>
   <v>       0.09954496       0.07042380      -0.01376845 </v>
   <v>       0.05091057       0.02495580      -0.06448233 </v>
   <v>      -0.04449169      -0.01996235      -0.02326124 </v>
   <v>       0.01629221       0.07929584       0.03763013 </v>
   <v>       0.00174079      -0.01693852      -0.05623146 </v>
   <v>       0.03581441       0.06398677       0.05427169 </v>
   <v>      -0.04775050       0.04733850      -0.00866296 </v>
   <v>       0.02213761       0.05319967      -0.05244479 </v>
   <v>      -0.13554264       0.12782909       0.01814690 </v>
   <v>       0.06249292      -0.05086761       0.03658344 </v>
   <v>      -0.06197675       0.06816183      -0.00595256 </v>
   <v>       0.04149350       0.11161811       0.10070616 </v>
   <v>       0.00078431      -0.00382929       0.03998030 </v>
   <v>      -0.17742518      -0.07928983       0.13661486 </v>
   <v>       0.01397545      -0.06825319       0.05739772 </v>
   <v>      -0.01375818       0.04432774       0.01368925 </v>
   <v>       0.04079447       0.05716660       0.02470906 </v>
   <v>       0.07299912       0.05286301      -0.14562374 </v>
   <v>      -0.10545018      -0.09585354      -0.00933389 </v>
   <v>      -0.06912353      -0.07942500       0.02796628 </v>
   <v>       0.02251307      -0.07820241       0.02365780 </v>
   <v>       0.11985892      -0.00564338       0.02483887 </v>
   <v>      -0.01277084       0.03483449      -0.09494044 </v>
   <v>       0.03386179       0.01245553      -0.27907808 </v>
   <v>       0.02702285       0.00909934       0.00960891 </v>
   <v>      -0.04009328      -0.06043149      -0.07604637 </v>
   <v>      -0.01343522       0.01390625      -0.05818347 </v>
   <v>       0.02894409      -0.07116989       0.02572622 </v>
   <v>       0.03752860       0.06964316       0.03908700 </v>
   <v>      -0.01215427       0.01488122      -0.01343614 </v>
   <v>       0.00459639      -0.05707875      -0.01697455 </v>
   <v>       0.03230159      -0.04918159      -0.31795692 </v>
   <v>       0.08241257       0.11216678      -0.02868282 </v>
   <v>       0.11805102       0.04069323      -0.01535594 </v>
   <v>       0.07467477       0.11718971       0.00682702 </v>
   <v>       0.30893557      -0.07153103      -0.06379206 </v>
   <v>      -0.20421901      -0.05793343       0.01512135 </v>
   <v>       0.10445964      -0.00375677      -0.10495792 </v>
  </varray>
  <varray name="stress" >
   <v>     -11.82002852      -5.70765532      -0.64900669 </v>
   <v>      -5.70746304     -17.31979576       0.42802354 </v>
   <v>      -0.64893504       0.42786696      -2.48841544 </v>
  </varray>
  <energy>
   <i name="e_fr_energy">   -537.97408242 </i>
   <i name="e_wo_entrp">   -537.97408237 </i>
   <i name="e_0_energy">   -537.97408240 </i>
  </energy>
  <time name="totalsc">   98.17   98.34</time>
 </calculation>
 <calculation>
  <scstep>
   <time name="dav">    1.57    1.57</time>
   <time name="total">    3.29    3.33</time>
   <energy>
    <i name="alphaZ">   1192.14239942 </i>
    <i name="ewald"> 115014.88443468 </i>
    <i name="hartreedc">-156258.05101846 </i>
    <i name="XCdc">   1345.05130098 </i>
    <i name="pawpsdc">  44630.70450455 </i>
    <i name="pawaedc"> -43945.02417142 </i>
    <i name="eentropy">     -0.00000002 </i>
    <i name="bandstr">  -6327.32701483 </i>
    <i name="atom">  43809.76760834 </i>
    <i name="e_fr_energy">   -537.85195676 </i>
    <i name="e_wo_entrp">   -537.85195674 </i>
    <i name="e_0_energy">   -537.85195675 </i>
   </energy>
  </scstep>
  <scstep>
   <time name="dav">    1.94    1.94</time>
   <time name="total">    3.67    3.67</time>
   <energy>
    <i name="e_fr_energy">   -537.98934409 </i>
    <i name="e_wo_entrp">   -537.98934406 </i>
    <i name="e_0_energy">   -537.98934408 </i>
   </energy>
  </scstep>
  <scstep>
   <time name="dav">    2.26    2.26</time>
   <time name="total">    3.96    3.96</time>
   <energy>
    <i name="e_fr_energy">   -537.99242908 </i>
    <i name="e_wo_entrp">   -537.99242905 </i>
    <i name="e_0_energy">   -537.99242907 </i>
   </energy>
  </scstep>
  <scstep>
   <time name="dav">    2.56    2.56</time>
   <time name="total">    4.32    4.32</time>
   <energy>
    <i name="e_fr_energy">   -537.99299479 </i>
    <i name="e_wo_entrp">   -537.99299477 </i>
    <i name="e_0_energy">   -537.99299478 </i>
   </energy>
  </scstep>
  <scstep>
   <time name="dav">    2.28    2.28</time>
   <time name="total">    4.00    4.01</time>
   <energy>
    <i name="e_fr_energy">   -537.99080449 </i>
    <i name="e_wo_entrp">   -537.99080445 </i>
    <i name="e_0_energy">   -537.99080447 </i>
   </energy>
  </scstep>
  <scstep>
   <time name="dav">    2.24    2.24</time>
   <time name="total">    3.95    3.96</time>
   <energy>
    <i name="e_fr_energy">   -537.99083817 </i>
    <i name="e_wo_entrp">   -537.99083814 </i>
    <i name="e_0_energy">   -537.99083816 </i>
   </energy>
  </scstep>
  <scstep>
   <time name="dav">    2.40    2.40</time>
   <time name="total">    4.12    4.13</time>
   <energy>
    <i name="e_fr_energy">   -537.99073952 </i>
    <i name="e_wo_entrp">   -537.99073949 </i>
    <i name="e_0_energy">   -537.99073951 </i>
   </energy>
  </scstep>
  <scstep>
   <time name="dav">    2.60    2.60</time>
   <time name="total">    4.31    4.31</time>
   <energy>
    <i name="e_fr_energy">   -537.99076463 </i>
    <i name="e_wo_entrp">   -537.99076460 </i>
    <i name="e_0_energy">   -537.99076462 </i>
   </energy>
  </scstep>
  <scstep>
   <time name="dav">    2.52    2.53</time>
   <time name="total">    4.28    4.28</time>
   <energy>
    <i name="e_fr_energy">   -537.99079422 </i>
    <i name="e_wo_entrp">   -537.99079418 </i>
    <i name="e_0_energy">   -537.99079420 </i>
   </energy>
  </scstep>
  <scstep>
   <time name="dav">    2.45    2.45</time>
   <time name="total">    4.20    4.20</time>
   <energy>
    <i name="e_fr_energy">   -537.99080921 </i>
    <i name="e_wo_entrp">   -537.99080918 </i>
    <i name="e_0_energy">   -537.99080919 </i>
   </energy>
  </scstep>
  <scstep>
   <time name="dav">    2.21    2.21</time>
   <time name="total">    3.94    3.95</time>
   <energy>
    <i name="e_fr_energy">   -537.99083108 </i>
    <i name="e_wo_entrp">   -537.99083104 </i>
    <i name="e_0_energy">   -537.99083106 </i>
   </energy>
  </scstep>
  <scstep>
   <time name="dav">    2.24    2.24</time>
