 running  192 mpi-ranks, on    1 nodes
 distrk:  each k-point on  192 cores,    1 groups
 distr:  one band on    4 cores,   48 groups
 vasp.6.4.3 19Mar24 (build Mar 01 2025 18:03:59) gamma-only                     
  
 POSCAR found type information on POSCAR CeO Ir
 POSCAR found :  3 types and      73 ions
 Reading from existing POTCAR
 scaLAPACK will be used
 -----------------------------------------------------------------------------
|                                                                             |
|           W    W    AA    RRRRR   N    N  II  N    N   GGGG   !!!           |
|           W    W   A  A   R    R  NN   N  II  NN   N  G    G  !!!           |
|           W    W  A    A  R    R  N N  N  II  N N  N  G       !!!           |
|           W WW W  AAAAAA  RRRRR   N  N N  II  N  N N  G  GGG   !            |
|           WW  WW  A    A  R   R   N   NN  II  N   NN  G    G                |
|           W    W  A    A  R    R  N    N  II  N    N   GGGG   !!!           |
|                                                                             |
|     For optimal performance we recommend to set                             |
|       NCORE = 2 up to number-of-cores-per-socket                            |
|     NCORE specifies how many cores store one orbital (NPAR=cpu/NCORE).      |
|     This setting can greatly improve the performance of VASP for DFT.       |
|     The default, NCORE=1 might be grossly inefficient on modern             |
|     multi-core architectures or massively parallel machines. Do your        |
|     own testing! More info at https://www.vasp.at/wiki/index.php/NCORE      |
|     Unfortunately you need to use the default for GW and RPA                |
|     calculations (for HF NCORE is supported but not extensively tested      |
|     yet).                                                                   |
|                                                                             |
 -----------------------------------------------------------------------------

 Reading from existing POTCAR
 -----------------------------------------------------------------------------
|                                                                             |
|               ----> ADVICE to this user running VASP <----                  |
|                                                                             |
|     You have a (more or less) 'large supercell' and for larger cells it     |
|     might be more efficient to use real-space projection operators.         |
|     Therefore, try LREAL= Auto in the INCAR file.                           |
|     Mind: For very accurate calculation, you might also keep the            |
|     reciprocal projection scheme (i.e. LREAL=.FALSE.).                      |
|                                                                             |
 -----------------------------------------------------------------------------

 LDA part: xc-table for (Slater+PW92), standard interpolation
 POSCAR, INCAR and KPOINTS ok, starting setup
 FFT: planning ... GRIDC
 FFT: planning ... GRID_SOFT
 FFT: planning ... GRID
 WAVECAR not read
 WARNING: random wavefunctions but no delay for mixing, default for NELMDL
 entering main loop
       N       E                     dE             d eps       ncg     rms          rms(c)
DAV:   1     0.100287435788E+05    0.10029E+05   -0.25923E+05  1536   0.161E+03
DAV:   2     0.276319961410E+04   -0.72655E+04   -0.64325E+04  1920   0.429E+02
DAV:   3    -0.254100131872E+03   -0.30173E+04   -0.29225E+04  2256   0.251E+02
DAV:   4    -0.651897842730E+03   -0.39780E+03   -0.38941E+03  2304   0.960E+01
DAV:   5    -0.672972292535E+03   -0.21074E+02   -0.20333E+02  2688   0.248E+01    0.157E+02
DAV:   6    -0.531295214724E+03    0.14168E+03   -0.16002E+03  2208   0.663E+01    0.967E+01
DAV:   7    -0.549007873509E+03   -0.17713E+02   -0.14762E+03  2256   0.115E+02    0.906E+01
DAV:   8    -0.549735513904E+03   -0.72764E+00   -0.30892E+02  2304   0.405E+01    0.627E+01
DAV:   9    -0.534468414300E+03    0.15267E+02   -0.30547E+02  2448   0.318E+01    0.710E+01
DAV:  10    -0.506045598050E+03    0.28423E+02   -0.88138E+01  2544   0.206E+01    0.315E+01
DAV:  11    -0.503569294457E+03    0.24763E+01   -0.75355E+01  2688   0.150E+01    0.378E+01
DAV:  12    -0.500135256050E+03    0.34340E+01   -0.29641E+01  2736   0.101E+01    0.180E+01
DAV:  13    -0.500607548519E+03   -0.47229E+00   -0.95348E+00  2592   0.509E+00    0.153E+01
DAV:  14    -0.501396334187E+03   -0.78879E+00   -0.44508E+00  2592   0.393E+00    0.149E+01
DAV:  15    -0.504239267034E+03   -0.28429E+01   -0.56055E+00  2640   0.295E+00    0.172E+01
DAV:  16    -0.505360764952E+03   -0.11215E+01   -0.13226E+00  2496   0.310E+00    0.149E+01
DAV:  17    -0.510456138848E+03   -0.50954E+01   -0.55621E+00  2352   0.545E+00    0.554E+01
DAV:  18    -0.508508504882E+03    0.19476E+01   -0.10439E+01  2400   0.602E+00    0.117E+01
DAV:  19    -0.513028675486E+03   -0.45202E+01   -0.51579E+00  2496   0.373E+00    0.988E+00
DAV:  20    -0.515724998506E+03   -0.26963E+01   -0.33522E+00  2592   0.262E+00    0.776E+00
DAV:  21    -0.520951770926E+03   -0.52268E+01   -0.58346E+00  2544   0.369E+00    0.566E+01
DAV:  22    -0.521490785263E+03   -0.53901E+00   -0.12936E+00  2496   0.186E+00    0.476E+01
DAV:  23    -0.521666943189E+03   -0.17616E+00   -0.15680E+00  2448   0.856E-01    0.425E+01
DAV:  24    -0.521539167264E+03    0.12778E+00   -0.59663E-01  2448   0.894E-01    0.363E+01
DAV:  25    -0.521484072972E+03    0.55094E-01   -0.54375E-01  2304   0.515E-01    0.417E+01
DAV:  26    -0.521465913827E+03    0.18159E-01   -0.79004E-03  1920   0.259E-01    0.417E+01
DAV:  27    -0.521451373163E+03    0.14541E-01   -0.50002E-03  2976   0.989E-02    0.414E+01
DAV:  28    -0.521499995119E+03   -0.48622E-01   -0.52075E-02  2256   0.164E-01    0.417E+01
DAV:  29    -0.521563617813E+03   -0.63623E-01   -0.41408E-02  2160   0.227E-01    0.402E+01
DAV:  30    -0.521566130222E+03   -0.25124E-02   -0.56242E-02  2304   0.190E-01    0.417E+01
DAV:  31    -0.521639783268E+03   -0.73653E-01   -0.24945E-01  2496   0.443E-01    0.349E+01
DAV:  32    -0.521705996917E+03   -0.66214E-01   -0.73540E-01  2304   0.560E-01    0.362E+01
DAV:  33    -0.521764294972E+03   -0.58298E-01   -0.12362E-02  2112   0.255E-01    0.364E+01
DAV:  34    -0.521887170202E+03   -0.12288E+00   -0.34293E-01  2400   0.409E-01    0.307E+01
DAV:  35    -0.521890606329E+03   -0.34361E-02   -0.52898E-03  2160   0.216E-01    0.308E+01
DAV:  36    -0.521873212521E+03    0.17394E-01   -0.95873E-02  2544   0.288E-01    0.312E+01
DAV:  37    -0.521870458290E+03    0.27542E-02   -0.18590E-01  2256   0.301E-01    0.303E+01
DAV:  38    -0.521870021628E+03    0.43666E-03   -0.11285E-03  2064   0.857E-02    0.304E+01
DAV:  39    -0.521897836502E+03   -0.27815E-01   -0.40322E-02  2640   0.143E-01    0.293E+01
DAV:  40    -0.521910967160E+03   -0.13131E-01   -0.40240E-03  2256   0.863E-02    0.291E+01
DAV:  41    -0.522035132605E+03   -0.12417E+00   -0.13881E-01  2640   0.668E-01    0.284E+01
DAV:  42    -0.522059499001E+03   -0.24366E-01   -0.94052E-03  2256   0.252E-01    0.282E+01
DAV:  43    -0.522105305021E+03   -0.45806E-01   -0.39700E-03  2496   0.222E-01    0.284E+01
DAV:  44    -0.522400965644E+03   -0.29566E+00   -0.26416E-02  2496   0.431E-01    0.284E+01
DAV:  45    -0.522412648373E+03   -0.11683E-01   -0.46018E-03  2448   0.212E-01    0.285E+01
DAV:  46    -0.522564243156E+03   -0.15159E+00   -0.12173E-01  2544   0.392E-01    0.317E+01
DAV:  47    -0.522546149073E+03    0.18094E-01   -0.41097E-03  2160   0.132E-01    0.319E+01
DAV:  48    -0.522539154808E+03    0.69943E-02   -0.58329E-03  2400   0.768E-02    0.315E+01
DAV:  49    -0.522481393545E+03    0.57761E-01   -0.16869E-01  2352   0.339E-01    0.283E+01
DAV:  50    -0.522488365001E+03   -0.69715E-02   -0.20290E-03  2112   0.123E-01    0.283E+01
DAV:  51    -0.521282919015E+03    0.12054E+01   -0.10126E+00  2496   0.241E+00    0.194E+01
DAV:  52    -0.521555878525E+03   -0.27296E+00   -0.58864E-01  2592   0.148E+00    0.173E+01
DAV:  53    -0.522192270792E+03   -0.63639E+00   -0.55405E-01  2448   0.118E+00    0.170E+01
DAV:  54    -0.522314834635E+03   -0.12256E+00   -0.99138E-01  2448   0.150E+00    0.161E+01
DAV:  55    -0.522763743423E+03   -0.44891E+00   -0.18491E+00  2496   0.192E+00    0.151E+01
DAV:  56    -0.522258666617E+03    0.50508E+00   -0.24076E+00  2448   0.293E+00    0.109E+01
DAV:  57    -0.523400088302E+03   -0.11414E+01   -0.23976E+00  2448   0.235E+00    0.600E+00
DAV:  58    -0.524017347139E+03   -0.61726E+00   -0.68981E-01  2592   0.107E+00    0.551E+00
DAV:  59    -0.524454138243E+03   -0.43679E+00   -0.40792E-01  2592   0.943E-01    0.503E+00
DAV:  60    -0.525025796368E+03   -0.57166E+00   -0.97513E-01  2304   0.121E+00    0.523E+00
DAV:  61    -0.525038973940E+03   -0.13178E-01   -0.92549E-01  2688   0.130E+00    0.521E+00
DAV:  62    -0.525190281871E+03   -0.15131E+00   -0.57684E-01  2496   0.111E+00    0.472E+00
DAV:  63    -0.525202709825E+03   -0.12428E-01   -0.12550E-01  2640   0.627E-01    0.454E+00
DAV:  64    -0.525183339813E+03    0.19370E-01   -0.19823E-01  2496   0.667E-01    0.506E+00
DAV:  65    -0.525158983595E+03    0.24356E-01   -0.92340E-02  2736   0.453E-01    0.510E+00
DAV:  66    -0.525145258499E+03    0.13725E-01   -0.21019E-01  2448   0.568E-01    0.477E+00
DAV:  67    -0.525243425735E+03   -0.98167E-01   -0.34092E+00  2544   0.860E-01    0.998E+00
DAV:  68    -0.525271776480E+03   -0.28351E-01   -0.20388E-02  2400   0.292E-01    0.990E+00
DAV:  69    -0.525248685898E+03    0.23091E-01   -0.55262E-03  2496   0.137E-01    0.983E+00
DAV:  70    -0.525103197069E+03    0.14549E+00   -0.37757E-02  2496   0.360E-01    0.953E+00
DAV:  71    -0.525324908331E+03   -0.22171E+00   -0.46165E-01  2448   0.131E+00    0.577E+00
DAV:  72    -0.525490676883E+03   -0.16577E+00   -0.18864E-01  2688   0.700E-01    0.585E+00
DAV:  73    -0.525677424905E+03   -0.18675E+00   -0.20038E-01  2544   0.560E-01    0.576E+00
DAV:  74    -0.525866330603E+03   -0.18891E+00   -0.25733E-01  2448   0.737E-01    0.537E+00
DAV:  75    -0.525921144041E+03   -0.54813E-01   -0.24118E-01  2448   0.663E-01    0.467E+00
DAV:  76    -0.526005928504E+03   -0.84784E-01   -0.83412E-01  2304   0.163E+00    0.598E+00
DAV:  77    -0.526339400381E+03   -0.33347E+00   -0.51225E-01  2400   0.118E+00    0.560E+00
DAV:  78    -0.526365746997E+03   -0.26347E-01   -0.17725E-01  2448   0.107E+00    0.526E+00
DAV:  79    -0.525997201026E+03    0.36855E+00   -0.24701E-01  2496   0.153E+00    0.519E+00
DAV:  80    -0.525569732630E+03    0.42747E+00   -0.13043E-01  2304   0.853E-01    0.544E+00
DAV:  81    -0.526057382937E+03   -0.48765E+00   -0.64976E-01  2352   0.163E+00    0.532E+00
DAV:  82    -0.526236334646E+03   -0.17895E+00   -0.14997E-01  2352   0.810E-01    0.528E+00
DAV:  83    -0.525972528187E+03    0.26381E+00   -0.29845E-01  2352   0.110E+00    0.535E+00
DAV:  84    -0.525747250388E+03    0.22528E+00   -0.61438E-01  2400   0.119E+00    0.547E+00
DAV:  85    -0.525591539696E+03    0.15571E+00   -0.12464E-01  2496   0.549E-01    0.552E+00
DAV:  86    -0.526328228602E+03   -0.73669E+00   -0.86679E-01  2400   0.226E+00    0.492E+00
DAV:  87    -0.526354515855E+03   -0.26287E-01   -0.14969E-01  2400   0.672E-01    0.500E+00
DAV:  88    -0.526320912618E+03    0.33603E-01   -0.13032E-01  2352   0.558E-01    0.507E+00
DAV:  89    -0.526323375949E+03   -0.24633E-02   -0.11284E-01  2400   0.501E-01    0.510E+00
DAV:  90    -0.526186144402E+03    0.13723E+00   -0.13879E-01  2304   0.650E-01
 -----------------------------------------------------------------------------
|                                                                             |
|           W    W    AA    RRRRR   N    N  II  N    N   GGGG   !!!           |
|           W    W   A  A   R    R  NN   N  II  NN   N  G    G  !!!           |
|           W    W  A    A  R    R  N N  N  II  N N  N  G       !!!           |
|           W WW W  AAAAAA  RRRRR   N  N N  II  N  N N  G  GGG   !            |
|           WW  WW  A    A  R   R   N   NN  II  N   NN  G    G                |
|           W    W  A    A  R    R  N    N  II  N    N   GGGG   !!!           |
|                                                                             |
|     The electronic self-consistency was not achieved in the given           |
|     number of steps (NELM). The forces and other quantities evaluated       |
|     might not be reliable so examine the results carefully. If you find     |
|     spurious results, we suggest increasing NELM, if you were close to      |
|     convergence or switching to a different ALGO or adjusting the           |
|     density mixing parameters otherwise.                                    |
|                                                                             |
 -----------------------------------------------------------------------------

   1 F= -.52618614E+03 E0= -.52618489E+03  d E =-.526186E+03  mag=     8.5840
 curvature:   0.00 expect dE= 0.000E+00 dE for cont linesearch  0.000E+00
 trial: gam= 0.00000 g(F)=  0.222E+02 g(S)=  0.000E+00 ort = 0.000E+00 (trialstep = 0.100E+01)
 search vector abs. value=  0.222E+02
 bond charge predicted
       N       E                     dE             d eps       ncg     rms          rms(c)
DAV:   1    -0.492271913746E+03    0.34051E+02   -0.42436E+03  1536   0.937E+01    0.405E+01
DAV:   2    -0.556613509468E+03   -0.64342E+02   -0.58956E+02  2400   0.408E+01    0.137E+02
DAV:   3    -0.550668604978E+03    0.59449E+01   -0.11446E+02  2208   0.177E+01    0.923E+01
DAV:   4    -0.537747934949E+03    0.12921E+02   -0.13171E+02  2640   0.160E+01    0.455E+01
DAV:   5    -0.527459337342E+03    0.10289E+02   -0.11109E+02  2544   0.128E+01    0.334E+01
DAV:   6    -0.526211580446E+03    0.12478E+01   -0.30177E+01  2592   0.765E+00    0.233E+01
DAV:   7    -0.527276605957E+03   -0.10650E+01   -0.22207E+01  2496   0.638E+00    0.247E+01
DAV:   8    -0.527191498213E+03    0.85108E-01   -0.17394E+01  2688   0.395E+00    0.201E+01
DAV:   9    -0.526707077362E+03    0.48442E+00   -0.47746E+00  2544   0.381E+00    0.140E+01
DAV:  10    -0.526939899200E+03   -0.23282E+00   -0.36058E+00  2496   0.296E+00    0.121E+01
DAV:  11    -0.526954285204E+03   -0.14386E-01   -0.84566E-01  2256   0.158E+00    0.109E+01
DAV:  12    -0.526943666832E+03    0.10618E-01   -0.15438E+00  2304   0.204E+00    0.866E+00
DAV:  13    -0.526867423151E+03    0.76244E-01   -0.67280E-01  2448   0.166E+00    0.715E+00
DAV:  14    -0.526865629635E+03    0.17935E-02   -0.38765E-01  2544   0.119E+00    0.574E+00
DAV:  15    -0.526910528447E+03   -0.44899E-01   -0.13028E-01  2544   0.644E-01    0.507E+00
DAV:  16    -0.526971271226E+03   -0.60743E-01   -0.82732E-02  2352   0.472E-01    0.439E+00
DAV:  17    -0.526997431213E+03   -0.26160E-01   -0.32121E-02  2448   0.245E-01    0.416E+00
DAV:  18    -0.527003636725E+03   -0.62055E-02   -0.45385E-03  2544   0.103E-01    0.413E+00
DAV:  19    -0.526997343814E+03    0.62929E-02   -0.10559E-03  2496   0.456E-02    0.412E+00
DAV:  20    -0.526976403858E+03    0.20940E-01   -0.38484E-02  2160   0.180E-01    0.404E+00
DAV:  21    -0.526945192781E+03    0.31211E-01   -0.95536E-02  2160   0.241E-01    0.399E+00
DAV:  22    -0.526934002497E+03    0.11190E-01   -0.89624E-02  2160   0.234E-01    0.399E+00
DAV:  23    -0.526930590902E+03    0.34116E-02   -0.53492E-02  2208   0.163E-01    0.402E+00
DAV:  24    -0.526939755573E+03   -0.91647E-02   -0.14254E-03  1824   0.619E-02    0.403E+00
DAV:  25    -0.526944355162E+03   -0.45996E-02   -0.28370E-04  2592   0.252E-02    0.402E+00
DAV:  26    -0.526996335816E+03   -0.51981E-01   -0.96471E-03  2064   0.146E-01    0.375E+00
DAV:  27    -0.527139451823E+03   -0.14312E+00   -0.10657E-01  2208   0.431E-01    0.302E+00
DAV:  28    -0.527196426614E+03   -0.56975E-01   -0.71580E-02  2304   0.303E-01    0.266E+00
DAV:  29    -0.527238701357E+03   -0.42275E-01   -0.15014E-02  2304   0.171E-01    0.244E+00
DAV:  30    -0.527288001196E+03   -0.49300E-01   -0.18421E-02  2352   0.166E-01    0.216E+00
DAV:  31    -0.527335261832E+03   -0.47261E-01   -0.13658E-02  2256   0.160E-01    0.182E+00
DAV:  32    -0.527379378659E+03   -0.44117E-01   -0.22821E-02  2256   0.192E-01    0.142E+00
DAV:  33    -0.527402428662E+03   -0.23050E-01   -0.33438E-02  2208   0.201E-01    0.115E+00
DAV:  34    -0.527419485777E+03   -0.17057E-01   -0.23880E-02  2256   0.159E-01    0.127E+00
DAV:  35    -0.527424548595E+03   -0.50628E-02   -0.30175E-03  2256   0.801E-02    0.137E+00
DAV:  36    -0.527431203171E+03   -0.66546E-02   -0.18539E-03  2160   0.581E-02    0.142E+00
DAV:  37    -0.527442297679E+03   -0.11095E-01   -0.60938E-03  2064   0.101E-01    0.144E+00
DAV:  38    -0.527456254222E+03   -0.13957E-01   -0.40338E-03  2160   0.864E-02    0.135E+00
DAV:  39    -0.527460208561E+03   -0.39543E-02   -0.14794E-03  2208   0.559E-02    0.126E+00
DAV:  40    -0.527464360665E+03   -0.41521E-02   -0.13358E-03  2304   0.414E-02    0.120E+00
DAV:  41    -0.527467517860E+03   -0.31572E-02   -0.11781E-03  2256   0.337E-02    0.119E+00
DAV:  42    -0.527469290144E+03   -0.17723E-02   -0.12585E-03  2352   0.301E-02    0.120E+00
DAV:  43    -0.527471411787E+03   -0.21216E-02   -0.23329E-03  2112   0.381E-02    0.119E+00
DAV:  44    -0.527473311162E+03   -0.18994E-02   -0.14849E-03  2352   0.312E-02    0.116E+00
DAV:  45    -0.527474261557E+03   -0.95040E-03   -0.10260E-03  2208   0.250E-02    0.113E+00
DAV:  46    -0.527475211827E+03   -0.95027E-03   -0.24128E-03  2160   0.365E-02    0.109E+00
DAV:  47    -0.527476287873E+03   -0.10760E-02   -0.59535E-03  2112   0.584E-02    0.101E+00
DAV:  48    -0.527476516776E+03   -0.22890E-03   -0.33374E-03  2208   0.432E-02    0.988E-01
DAV:  49    -0.527476758980E+03   -0.24220E-03   -0.20111E-03  2160   0.325E-02    0.977E-01
DAV:  50    -0.527477204926E+03   -0.44595E-03   -0.30938E-04  2016   0.147E-02    0.972E-01
DAV:  51    -0.527477451863E+03   -0.24694E-03   -0.41872E-04  1872   0.163E-02    0.981E-01
DAV:  52    -0.527477572609E+03   -0.12075E-03   -0.14302E-03  2112   0.282E-02    0.997E-01
DAV:  53    -0.527477236867E+03    0.33574E-03   -0.46209E-05  1920   0.846E-03    0.100E+00
DAV:  54    -0.527476981850E+03    0.25502E-03   -0.19073E-04  2064   0.104E-02    0.101E+00
DAV:  55    -0.527477094023E+03   -0.11217E-03   -0.66711E-04  1968   0.195E-02    0.992E-01
DAV:  56    -0.527477566204E+03   -0.47218E-03   -0.41856E-03  2064   0.476E-02    0.945E-01
DAV:  57    -0.527478054373E+03   -0.48817E-03   -0.64498E-03  2160   0.581E-02    0.900E-01
DAV:  58    -0.527478562076E+03   -0.50770E-03   -0.18086E-03  2208   0.318E-02    0.884E-01
DAV:  59    -0.527479009064E+03   -0.44699E-03   -0.72058E-04  2112   0.200E-02    0.870E-01
DAV:  60    -0.527479113843E+03   -0.10478E-03   -0.15612E-04  1920   0.111E-02    0.876E-01
DAV:  61    -0.527479170650E+03   -0.56808E-04   -0.42849E-04  1872   0.151E-02    0.869E-01
DAV:  62    -0.527479304012E+03   -0.13336E-03   -0.94455E-04  1920   0.239E-02    0.883E-01
DAV:  63    -0.527480008827E+03   -0.70482E-03   -0.84841E-03  1920   0.678E-02    0.821E-01
DAV:  64    -0.527481207268E+03   -0.11984E-02   -0.29908E-02  2112   0.125E-01    0.712E-01
DAV:  65    -0.527482418103E+03   -0.12108E-02   -0.11305E-02  2256   0.789E-02    0.656E-01
DAV:  66    -0.527483019219E+03   -0.60112E-03   -0.11255E-03  2064   0.276E-02    0.638E-01
DAV:  67    -0.527475394851E+03    0.76244E-02   -0.10038E+00  2064   0.739E-01    0.457E-01
DAV:  68    -0.527485009720E+03   -0.96149E-02   -0.11094E-02  1872   0.142E-01    0.433E-01
DAV:  69    -0.527485577256E+03   -0.56754E-03   -0.66244E-04  2736   0.299E-02    0.430E-01
DAV:  70    -0.527485631415E+03   -0.54159E-04   -0.21921E-05  2304   0.581E-03    0.429E-01
DAV:  71    -0.527485700743E+03   -0.69328E-04   -0.67857E-06  1776   0.341E-03    0.426E-01
DAV:  72    -0.527485940762E+03   -0.24002E-03   -0.16370E-05  2304   0.687E-03    0.419E-01
DAV:  73    -0.527486995038E+03   -0.10543E-02   -0.11472E-03  2160   0.346E-02    0.368E-01
DAV:  74    -0.527488167514E+03   -0.11725E-02   -0.75810E-04  2208   0.338E-02    0.309E-01
DAV:  75    -0.527488697624E+03   -0.53011E-03   -0.55328E-04  2208   0.236E-02    0.274E-01
DAV:  76    -0.527488812761E+03   -0.11514E-03   -0.47062E-05  2160   0.692E-03    0.266E-01
DAV:  77    -0.527488782524E+03    0.30237E-04   -0.10371E-03  2064   0.262E-02    0.283E-01
DAV:  78    -0.527488656413E+03    0.12611E-03   -0.14434E-04  2208   0.110E-02    0.294E-01
DAV:  79    -0.527488775450E+03   -0.11904E-03   -0.16163E-04  1968   0.118E-02    0.283E-01
DAV:  80    -0.527489065365E+03   -0.28991E-03   -0.40851E-04  2112   0.180E-02    0.259E-01
DAV:  81    -0.527489554266E+03   -0.48890E-03   -0.13952E-03  2112   0.336E-02    0.213E-01
DAV:  82    -0.527489856296E+03   -0.30203E-03   -0.29695E-04  2352   0.177E-02    0.185E-01
DAV:  83    -0.527489967616E+03   -0.11132E-03   -0.19538E-05  2112   0.630E-03    0.177E-01
DAV:  84    -0.527490062559E+03   -0.94944E-04   -0.15332E-05  2016   0.499E-03    0.168E-01
DAV:  85    -0.527490230082E+03   -0.16752E-03   -0.75979E-05  2160   0.876E-03    0.158E-01
DAV:  86    -0.527490672671E+03   -0.44259E-03   -0.90975E-04  2208   0.269E-02    0.134E-01
DAV:  87    -0.527491249867E+03   -0.57720E-03   -0.20419E-03  2304   0.454E-02    0.101E-01
DAV:  88    -0.527491429341E+03   -0.17947E-03   -0.42654E-04  2160   0.189E-02    0.102E-01
DAV:  89    -0.527491378691E+03    0.50649E-04   -0.22743E-05  1776   0.759E-03    0.103E-01
DAV:  90    -0.527491355647E+03    0.23044E-04   -0.16544E-05  1776   0.407E-03
 -----------------------------------------------------------------------------
|                                                                             |
|           W    W    AA    RRRRR   N    N  II  N    N   GGGG   !!!           |
|           W    W   A  A   R    R  NN   N  II  NN   N  G    G  !!!           |
|           W    W  A    A  R    R  N N  N  II  N N  N  G       !!!           |
|           W WW W  AAAAAA  RRRRR   N  N N  II  N  N N  G  GGG   !            |
|           WW  WW  A    A  R   R   N   NN  II  N   NN  G    G                |
|           W    W  A    A  R    R  N    N  II  N    N   GGGG   !!!           |
|                                                                             |
|     The electronic self-consistency was not achieved in the given           |
|     number of steps (NELM). The forces and other quantities evaluated       |
|     might not be reliable so examine the results carefully. If you find     |
|     spurious results, we suggest increasing NELM, if you were close to      |
|     convergence or switching to a different ALGO or adjusting the           |
|     density mixing parameters otherwise.                                    |
|                                                                             |
 -----------------------------------------------------------------------------

   2 F= -.52749136E+03 E0= -.52749101E+03  d E =-.130521E+01  mag=     2.9968
 trial-energy change:   -1.305211  1 .order   -7.493203  -22.185653    7.199247
 step:   0.4432(harm=  0.7550)  dis= 0.26310  next Energy=  -530.563796 (dE=-0.438E+01)
 bond charge predicted
       N       E                     dE             d eps       ncg     rms          rms(c)
DAV:   1    -0.522767634403E+03    0.47237E+01   -0.15488E+03  1536   0.521E+01    0.200E+01
DAV:   2    -0.532440212772E+03   -0.96726E+01   -0.11033E+02  2400   0.154E+01    0.215E+01
DAV:   3    -0.530414598905E+03    0.20256E+01   -0.32966E+01  2688   0.802E+00    0.169E+01
DAV:   4    -0.530218905169E+03    0.19569E+00   -0.89152E+00  2304   0.386E+00    0.146E+01
DAV:   5    -0.529731096644E+03    0.48781E+00   -0.35917E+00  2496   0.266E+00    0.800E+00
DAV:   6    -0.530098701531E+03   -0.36760E+00   -0.49028E+00  2736   0.307E+00    0.956E+00
DAV:   7    -0.529933456826E+03    0.16524E+00   -0.31030E+00  2736   0.292E+00    0.594E+00
DAV:   8    -0.529879474484E+03    0.53982E-01   -0.63725E-01  2400   0.167E+00    0.438E+00
DAV:   9    -0.529829151228E+03    0.50323E-01   -0.31448E-01  2448   0.991E-01    0.311E+00
DAV:  10    -0.529813903949E+03    0.15247E-01   -0.27690E-01  2400   0.935E-01    0.184E+00
DAV:  11    -0.529852411809E+03   -0.38508E-01   -0.92772E-02  2496   0.511E-01    0.110E+00
DAV:  12    -0.529915420337E+03   -0.63009E-01   -0.61710E-02  2352   0.351E-01    0.922E-01
DAV:  13    -0.529946842931E+03   -0.31423E-01   -0.43442E-02  2256   0.312E-01    0.961E-01
DAV:  14    -0.529949098790E+03   -0.22559E-02   -0.28058E-02  2448   0.289E-01    0.640E-01
DAV:  15    -0.529951248224E+03   -0.21494E-02   -0.10019E-02  2352   0.180E-01    0.416E-01
DAV:  16    -0.529954090880E+03   -0.28427E-02   -0.88786E-03  2352   0.132E-01    0.392E-01
DAV:  17    -0.529956808490E+03   -0.27176E-02   -0.54479E-03  2256   0.901E-02    0.409E-01
DAV:  18    -0.529958553720E+03   -0.17452E-02   -0.20935E-03  2208   0.521E-02    0.400E-01
DAV:  19    -0.529959208840E+03   -0.65512E-03   -0.62566E-04  2400   0.289E-02    0.396E-01
DAV:  20    -0.529959892422E+03   -0.68358E-03   -0.74852E-04  2160   0.267E-02    0.402E-01
DAV:  21    -0.529957934912E+03    0.19575E-02   -0.50282E-03  2208   0.726E-02    0.407E-01
DAV:  22    -0.529958766574E+03   -0.83166E-03   -0.88325E-04  2160   0.389E-02    0.403E-01
DAV:  23    -0.529961612081E+03   -0.28455E-02   -0.35412E-02  2160   0.199E-01    0.407E-01
DAV:  24    -0.529961644656E+03   -0.32575E-04   -0.20642E-03  1920   0.787E-02    0.422E-01
DAV:  25    -0.529963275020E+03   -0.16304E-02   -0.34298E-03  2352   0.664E-02    0.427E-01
DAV:  26    -0.529969666414E+03   -0.63914E-02   -0.98952E-02  2160   0.319E-01    0.456E-01
DAV:  27    -0.529973108963E+03   -0.34425E-02   -0.70478E-03  2208   0.141E-01    0.421E-01
DAV:  28    -0.529976956007E+03   -0.38470E-02   -0.25204E-02  2256   0.174E-01    0.390E-01
DAV:  29    -0.529978684954E+03   -0.17289E-02   -0.46227E-03  2208   0.103E-01    0.329E-01
DAV:  30    -0.529980341378E+03   -0.16564E-02   -0.47872E-03  2208   0.807E-02    0.279E-01
DAV:  31    -0.529982271148E+03   -0.19298E-02   -0.11251E-02  2160   0.114E-01    0.202E-01
DAV:  32    -0.529983288494E+03   -0.10173E-02   -0.66592E-03  2256   0.897E-02    0.135E-01
DAV:  33    -0.529983755158E+03   -0.46666E-03   -0.19838E-03  2208   0.596E-02    0.714E-02
DAV:  34    -0.529984186331E+03   -0.43117E-03   -0.14289E-03  2256   0.431E-02    0.503E-02
DAV:  35    -0.529984487151E+03   -0.30082E-03   -0.10884E-03  2160   0.300E-02    0.410E-02
DAV:  36    -0.529984777769E+03   -0.29062E-03   -0.11049E-03  2208   0.274E-02    0.352E-02
DAV:  37    -0.529984971781E+03   -0.19401E-03   -0.67934E-04  2160   0.213E-02    0.333E-02
DAV:  38    -0.529985137392E+03   -0.16561E-03   -0.71232E-04  2256   0.207E-02    0.333E-02
DAV:  39    -0.529985330897E+03   -0.19350E-03   -0.10095E-03  2160   0.262E-02    0.274E-02
DAV:  40    -0.529985488432E+03   -0.15753E-03   -0.68769E-04  2256   0.209E-02    0.269E-02
DAV:  41    -0.529985623690E+03   -0.13526E-03   -0.55695E-04  2208   0.185E-02    0.237E-02
DAV:  42    -0.529985828285E+03   -0.20460E-03   -0.15262E-03  2304   0.284E-02    0.237E-02
DAV:  43    -0.529986025489E+03   -0.19720E-03   -0.13989E-03  2208   0.261E-02    0.228E-02
DAV:  44    -0.529986177913E+03   -0.15242E-03   -0.80301E-04  2208   0.202E-02    0.232E-02
DAV:  45    -0.529986215512E+03   -0.37598E-04   -0.50289E-05  1920   0.591E-03    0.233E-02
DAV:  46    -0.529986088295E+03    0.12722E-03   -0.53735E-04  2016   0.163E-02    0.251E-02
DAV:  47    -0.529985905784E+03    0.18251E-03   -0.10844E-03  2208   0.222E-02    0.267E-02
DAV:  48    -0.529986074514E+03   -0.16873E-03   -0.80116E-04  2016   0.198E-02    0.245E-02
DAV:  49    -0.529986601129E+03   -0.52662E-03   -0.11671E-02  2256   0.714E-02    0.247E-02
DAV:  50    -0.529987225956E+03   -0.62483E-03   -0.15219E-02  2208   0.806E-02    0.244E-02
DAV:  51    -0.529987760495E+03   -0.53454E-03   -0.10323E-02  2208   0.665E-02    0.246E-02
DAV:  52    -0.529987918633E+03   -0.15814E-03   -0.46285E-04  2400   0.167E-02    0.242E-02
DAV:  53    -0.529987992449E+03   -0.73816E-04   -0.17238E-04  1968   0.935E-03    0.235E-02
DAV:  54    -0.529988061067E+03   -0.68617E-04   -0.18036E-04  1872   0.895E-03    0.234E-02
DAV:  55    -0.529987942367E+03    0.11870E-03   -0.47386E-04  1776   0.150E-02    0.240E-02
DAV:  56    -0.529988100361E+03   -0.15799E-03   -0.83516E-04  1920   0.197E-02    0.230E-02
DAV:  57    -0.529988960484E+03   -0.86012E-03   -0.42491E-02  2112   0.136E-01    0.270E-02
DAV:  58    -0.529989526537E+03   -0.56605E-03   -0.84982E-03  2256   0.617E-02    0.239E-02
DAV:  59    -0.529989968008E+03   -0.44147E-03   -0.75044E-03  2112   0.571E-02    0.230E-02
DAV:  60    -0.529990483914E+03   -0.51591E-03   -0.12021E-02  2208   0.722E-02    0.239E-02
DAV:  61    -0.529990973602E+03   -0.48969E-03   -0.10590E-02  2208   0.682E-02    0.231E-02
DAV:  62    -0.529991714686E+03   -0.74108E-03   -0.34684E-02  2208   0.124E-01    0.271E-02
DAV:  63    -0.529992348523E+03   -0.63384E-03   -0.19503E-02  2208   0.981E-02    0.396E-02
DAV:  64    -0.529993271886E+03   -0.92336E-03   -0.80426E-02  2112   0.187E-01    0.459E-02
DAV:  65    -0.529993152774E+03    0.11911E-03   -0.12177E-02  2304   0.952E-02    0.547E-02
DAV:  66    -0.529993842962E+03   -0.69019E-03   -0.20498E-02  2112   0.952E-02    0.472E-02
DAV:  67    -0.529993775892E+03    0.67071E-04   -0.57301E-04  2448   0.237E-02    0.530E-02
DAV:  68    -0.529993979455E+03   -0.20356E-03   -0.32911E-03  2256   0.375E-02    0.549E-02
DAV:  69    -0.529994079371E+03   -0.99916E-04   -0.93980E-04  2064   0.200E-02    0.565E-02
DAV:  70    -0.529993930754E+03    0.14862E-03   -0.14562E-03  1872   0.254E-02    0.570E-02
DAV:  71    -0.529994435219E+03   -0.50447E-03   -0.13191E-02  2064   0.750E-02    0.544E-02
DAV:  72    -0.529994912083E+03   -0.47686E-03   -0.15135E-02  2112   0.795E-02    0.515E-02
DAV:  73    -0.529995661939E+03   -0.74986E-03   -0.83787E-02  2160   0.191E-01    0.566E-02
DAV:  74    -0.529995985875E+03   -0.32394E-03   -0.11460E-03  2352   0.436E-02    0.446E-02
DAV:  75    -0.529996603124E+03   -0.61725E-03   -0.11602E-01  2160   0.226E-01    0.485E-02
DAV:  76    -0.529996215585E+03    0.38754E-03   -0.37241E-02  2112   0.149E-01    0.435E-02
DAV:  77    -0.529996937153E+03   -0.72157E-03   -0.34507E-02  2112   0.122E-01    0.306E-02
DAV:  78    -0.529997148259E+03   -0.21111E-03   -0.13287E-03  2160   0.268E-02    0.271E-02
DAV:  79    -0.529997164855E+03   -0.16596E-04   -0.45045E-05  1728   0.589E-03    0.281E-02
DAV:  80    -0.529997114231E+03    0.50624E-04   -0.31901E-04  1776   0.123E-02    0.289E-02
DAV:  81    -0.529997126302E+03   -0.12071E-04   -0.23157E-05  1344   0.383E-03    0.286E-02
DAV:  82    -0.529997167048E+03   -0.40745E-04   -0.13277E-05  1440   0.456E-03    0.263E-02
DAV:  83    -0.529997638844E+03   -0.47180E-03   -0.48412E-02  2064   0.147E-01    0.307E-02
DAV:  84    -0.529997928038E+03   -0.28919E-03   -0.88786E-03  2208   0.662E-02    0.354E-02
DAV:  85    -0.529998115717E+03   -0.18768E-03   -0.58942E-04  2448   0.198E-02    0.286E-02
DAV:  86    -0.529998357673E+03   -0.24196E-03   -0.28729E-03  2208   0.382E-02    0.179E-02
DAV:  87    -0.529998546152E+03   -0.18848E-03   -0.15051E-02  2160   0.839E-02    0.282E-02
DAV:  88    -0.529998656417E+03   -0.11026E-03   -0.44579E-04  2208   0.164E-02    0.254E-02
DAV:  89    -0.529998726014E+03   -0.69597E-04   -0.40363E-05  1872   0.796E-03    0.197E-02
DAV:  90    -0.529998611017E+03    0.11500E-03   -0.11115E-03  1872   0.231E-02
 -----------------------------------------------------------------------------
|                                                                             |
|           W    W    AA    RRRRR   N    N  II  N    N   GGGG   !!!           |
|           W    W   A  A   R    R  NN   N  II  NN   N  G    G  !!!           |
|           W    W  A    A  R    R  N N  N  II  N N  N  G       !!!           |
|           W WW W  AAAAAA  RRRRR   N  N N  II  N  N N  G  GGG   !            |
|           WW  WW  A    A  R   R   N   NN  II  N   NN  G    G                |
|           W    W  A    A  R    R  N    N  II  N    N   GGGG   !!!           |
|                                                                             |
|     The electronic self-consistency was not achieved in the given           |
|     number of steps (NELM). The forces and other quantities evaluated       |
|     might not be reliable so examine the results carefully. If you find     |
|     spurious results, we suggest increasing NELM, if you were close to      |
|     convergence or switching to a different ALGO or adjusting the           |
|     density mixing parameters otherwise.                                    |
|                                                                             |
 -----------------------------------------------------------------------------

   3 F= -.52999861E+03 E0= -.52999736E+03  d E =-.381247E+01  mag=     3.0003
 curvature:   0.23 expect dE= 0.230E+01 dE for cont linesearch  0.235E-01
 trial: gam= 0.51049 g(F)=  0.983E+01 g(S)=  0.000E+00 ort =-0.149E+01 (trialstep = 0.889E+00)
 search vector abs. value=  0.141E+02
 bond charge predicted
       N       E                     dE             d eps       ncg     rms          rms(c)
DAV:   1    -0.517906315229E+03    0.12092E+02   -0.25649E+03  1536   0.760E+01    0.222E+01
DAV:   2    -0.537553885521E+03   -0.19648E+02   -0.22623E+02  2544   0.243E+01    0.375E+01
DAV:   3    -0.534291174871E+03    0.32627E+01   -0.29316E+01  2448   0.872E+00    0.241E+01
DAV:   4    -0.533577422437E+03    0.71375E+00   -0.97100E+00  2592   0.562E+00    0.242E+01
DAV:   5    -0.532547224567E+03    0.10302E+01   -0.61573E+00  2448   0.369E+00    0.160E+01
DAV:   6    -0.532358550647E+03    0.18867E+00   -0.33545E+00  2448   0.383E+00    0.109E+01
DAV:   7    -0.532092827771E+03    0.26572E+00   -0.22708E+00  2544   0.328E+00    0.627E+00
DAV:   8    -0.532178998915E+03   -0.86171E-01   -0.10911E+00  2448   0.188E+00    0.510E+00
DAV:   9    -0.532193268000E+03   -0.14269E-01   -0.35571E-01  2496   0.105E+00    0.475E+00
DAV:  10    -0.532180310679E+03    0.12957E-01   -0.81774E-02  2448   0.480E-01    0.488E+00
DAV:  11    -0.532190647796E+03   -0.10337E-01   -0.47356E-02  2544   0.321E-01    0.475E+00
DAV:  12    -0.532182013125E+03    0.86347E-02   -0.18907E-01  2352   0.637E-01    0.387E+00
DAV:  13    -0.532150812497E+03    0.31201E-01   -0.32831E-01  2400   0.744E-01    0.383E+00
DAV:  14    -0.532135698133E+03    0.15114E-01   -0.38190E-02  2112   0.289E-01    0.385E+00
DAV:  15    -0.532135015101E+03    0.68303E-03   -0.31225E-03  2544   0.987E-02    0.386E+00
DAV:  16    -0.532134538481E+03    0.47662E-03   -0.29924E-04  2640   0.254E-02    0.389E+00
DAV:  17    -0.532048414461E+03    0.86124E-01   -0.13720E-01  2400   0.570E-01    0.418E+00
DAV:  18    -0.531952960261E+03    0.95454E-01   -0.12378E-01  2208   0.429E-01    0.454E+00
DAV:  19    -0.531958927558E+03   -0.59673E-02   -0.65672E-03  2304   0.158E-01    0.454E+00
DAV:  20    -0.531961370429E+03   -0.24429E-02   -0.12424E-03  2496   0.529E-02    0.457E+00
DAV:  21    -0.531958463103E+03    0.29073E-02   -0.30108E-03  2448   0.748E-02    0.468E+00
DAV:  22    -0.532013915604E+03   -0.55453E-01   -0.10036E-01  2208   0.428E-01    0.409E+00
DAV:  23    -0.532166144552E+03   -0.15223E+00   -0.72394E-01  2256   0.104E+00    0.577E+00
DAV:  24    -0.532184173819E+03   -0.18029E-01   -0.14289E-01  2448   0.576E-01    0.659E+00
DAV:  25    -0.532182008410E+03    0.21654E-02   -0.78748E-03  2160   0.163E-01    0.660E+00
DAV:  26    -0.532182261932E+03   -0.25352E-03   -0.20418E-02  2448   0.197E-01    0.665E+00
DAV:  27    -0.532170103282E+03    0.12159E-01   -0.30541E-02  2304   0.223E-01    0.628E+00
DAV:  28    -0.532097686403E+03    0.72417E-01   -0.20728E-01  2304   0.601E-01    0.502E+00
DAV:  29    -0.532080434726E+03    0.17252E-01   -0.10853E-01  2160   0.435E-01    0.422E+00
DAV:  30    -0.532139688845E+03   -0.59254E-01   -0.10374E-01  2208   0.448E-01    0.374E+00
DAV:  31    -0.532195139422E+03   -0.55451E-01   -0.98840E-02  2256   0.405E-01    0.398E+00
DAV:  32    -0.532212963077E+03   -0.17824E-01   -0.21921E-02  2256   0.200E-01    0.437E+00
DAV:  33    -0.532220343073E+03   -0.73800E-02   -0.25246E-02  2256   0.162E-01    0.503E+00
DAV:  34    -0.532220384562E+03   -0.41488E-04   -0.17313E-03  2160   0.689E-02    0.509E+00
DAV:  35    -0.532219739158E+03    0.64540E-03   -0.22557E-04  2736   0.203E-02    0.512E+00
DAV:  36    -0.532247852626E+03   -0.28113E-01   -0.10999E-02  2256   0.143E-01    0.494E+00
DAV:  37    -0.532273848758E+03   -0.25996E-01   -0.33537E-02  2304   0.228E-01    0.451E+00
DAV:  38    -0.532303276137E+03   -0.29427E-01   -0.16574E-01  2256   0.439E-01    0.323E+00
DAV:  39    -0.532310110504E+03   -0.68344E-02   -0.77611E-02  2304   0.357E-01    0.258E+00
DAV:  40    -0.532306223985E+03    0.38865E-02   -0.67173E-03  2304   0.148E-01    0.239E+00
DAV:  41    -0.532300632804E+03    0.55912E-02   -0.45387E-03  2400   0.108E-01    0.215E+00
DAV:  42    -0.532296646948E+03    0.39859E-02   -0.12898E-02  2304   0.170E-01    0.158E+00
DAV:  43    -0.532308681408E+03   -0.12034E-01   -0.18703E-02  2304   0.186E-01    0.862E-01
DAV:  44    -0.532336553530E+03   -0.27872E-01   -0.45752E-03  2208   0.118E-01    0.660E-01
DAV:  45    -0.532352075247E+03   -0.15522E-01   -0.26299E-03  2304   0.780E-02    0.507E-01
DAV:  46    -0.532371934596E+03   -0.19859E-01   -0.36539E-03  2208   0.807E-02    0.388E-01
DAV:  47    -0.532386460813E+03   -0.14526E-01   -0.51924E-03  2352   0.944E-02    0.399E-01
DAV:  48    -0.532395032247E+03   -0.85714E-02   -0.20933E-03  2256   0.697E-02    0.405E-01
DAV:  49    -0.532401851333E+03   -0.68191E-02   -0.10760E-03  2304   0.466E-02    0.352E-01
DAV:  50    -0.532406845664E+03   -0.49943E-02   -0.14525E-03  2256   0.529E-02    0.192E-01
DAV:  51    -0.532407859909E+03   -0.10142E-02   -0.44448E-04  2256   0.307E-02    0.137E-01
DAV:  52    -0.532409506003E+03   -0.16461E-02   -0.41590E-04  2352   0.239E-02    0.109E-01
DAV:  53    -0.532412572776E+03   -0.30668E-02   -0.94364E-04  2208   0.319E-02    0.858E-02
DAV:  54    -0.532413140776E+03   -0.56800E-03   -0.31425E-04  2352   0.190E-02    0.662E-02
DAV:  55    -0.532413729770E+03   -0.58899E-03   -0.33597E-04  2208   0.156E-02    0.481E-02
DAV:  56    -0.532414155023E+03   -0.42525E-03   -0.45365E-04  2352   0.165E-02    0.355E-02
DAV:  57    -0.532414504659E+03   -0.34964E-03   -0.61525E-04  2304   0.179E-02    0.323E-02
DAV:  58    -0.532414658646E+03   -0.15399E-03   -0.40886E-04  2352   0.152E-02    0.272E-02
DAV:  59    -0.532414736276E+03   -0.77630E-04   -0.17938E-04  2208   0.951E-03    0.251E-02
DAV:  60    -0.532414771689E+03   -0.35413E-04   -0.51552E-05  1680   0.506E-03    0.241E-02
DAV:  61    -0.532414799714E+03   -0.28025E-04   -0.34018E-05  1536   0.406E-03    0.229E-02
DAV:  62    -0.532414848144E+03   -0.48430E-04   -0.36249E-04  2256   0.136E-02    0.204E-02
DAV:  63    -0.532415015943E+03   -0.16780E-03   -0.12934E-03  2256   0.245E-02    0.200E-02
DAV:  64    -0.532415160843E+03   -0.14490E-03   -0.20178E-03  2112   0.291E-02    0.211E-02
DAV:  65    -0.532415245828E+03   -0.84985E-04   -0.57338E-04  1920   0.158E-02    0.215E-02
DAV:  66    -0.532415231028E+03    0.14800E-04   -0.42256E-05  1584   0.541E-03    0.213E-02
DAV:  67    -0.532415274077E+03   -0.43050E-04   -0.61523E-05  2016   0.636E-03    0.185E-02
DAV:  68    -0.532415325745E+03   -0.51667E-04   -0.28216E-04  1920   0.111E-02    0.182E-02
DAV:  69    -0.532415462308E+03   -0.13656E-03   -0.18095E-03  2016   0.270E-02    0.191E-02
DAV:  70    -0.532415744111E+03   -0.28180E-03   -0.86307E-03  2112   0.587E-02    0.229E-02
DAV:  71    -0.532416096781E+03   -0.35267E-03   -0.15048E-02  2160   0.772E-02    0.280E-02
DAV:  72    -0.532416183744E+03   -0.86963E-04   -0.10933E-04  1872   0.118E-02    0.289E-02
DAV:  73    -0.532416244936E+03   -0.61192E-04   -0.35668E-04  1728   0.120E-02    0.291E-02
DAV:  74    -0.532416292134E+03   -0.47198E-04   -0.17962E-04  1776   0.858E-03    0.293E-02
DAV:  75    -0.532416388132E+03   -0.95998E-04   -0.94242E-04  1920   0.193E-02    0.291E-02
DAV:  76    -0.532416790127E+03   -0.40200E-03   -0.29448E-02  2064   0.109E-01    0.314E-02
DAV:  77    -0.532416948562E+03   -0.15843E-03   -0.21676E-04  2016   0.148E-02    0.277E-02
DAV:  78    -0.532417277935E+03   -0.32937E-03   -0.23719E-02  2112   0.975E-02    0.299E-02
DAV:  79    -0.532417463769E+03   -0.18583E-03   -0.11074E-03  2256   0.235E-02    0.249E-02
DAV:  80    -0.532417455824E+03    0.79452E-05   -0.14761E-04  1872   0.932E-03    0.264E-02
DAV:  81    -0.532417443649E+03    0.12176E-04   -0.21814E-05  1440   0.330E-03    0.259E-02
DAV:  82    -0.532417383009E+03    0.60639E-04   -0.43429E-04  1824   0.134E-02    0.262E-02
DAV:  83    -0.532417436480E+03   -0.53471E-04   -0.37903E-04  1776   0.131E-02    0.266E-02
DAV:  84    -0.532417464077E+03   -0.27596E-04   -0.11222E-04  1584   0.686E-03    0.268E-02
DAV:  85    -0.532417450676E+03    0.13401E-04   -0.12454E-05  1248   0.303E-03    0.275E-02
DAV:  86    -0.532417433796E+03    0.16880E-04   -0.26839E-05  1392   0.348E-03    0.275E-02
DAV:  87    -0.532417259402E+03    0.17439E-03   -0.31023E-03  2064   0.354E-02    0.268E-02
DAV:  88    -0.532417238804E+03    0.20599E-04   -0.12433E-04  1872   0.803E-03    0.273E-02
DAV:  89    -0.532417272033E+03   -0.33229E-04   -0.81372E-05  1488   0.647E-03    0.266E-02
DAV:  90    -0.532417332591E+03   -0.60558E-04   -0.45929E-04  1728   0.137E-02
 -----------------------------------------------------------------------------
|                                                                             |
|           W    W    AA    RRRRR   N    N  II  N    N   GGGG   !!!           |
|           W    W   A  A   R    R  NN   N  II  NN   N  G    G  !!!           |
|           W    W  A    A  R    R  N N  N  II  N N  N  G       !!!           |
|           W WW W  AAAAAA  RRRRR   N  N N  II  N  N N  G  GGG   !            |
|           WW  WW  A    A  R   R   N   NN  II  N   NN  G    G                |
|           W    W  A    A  R    R  N    N  II  N    N   GGGG   !!!           |
|                                                                             |
|     The electronic self-consistency was not achieved in the given           |
|     number of steps (NELM). The forces and other quantities evaluated       |
|     might not be reliable so examine the results carefully. If you find     |
|     spurious results, we suggest increasing NELM, if you were close to      |
|     convergence or switching to a different ALGO or adjusting the           |
|     density mixing parameters otherwise.                                    |
|                                                                             |
 -----------------------------------------------------------------------------

   4 F= -.53241733E+03 E0= -.53241733E+03  d E =-.241872E+01  mag=     5.0005
 trial-energy change:   -2.418722  1 .order   -3.391966   -8.059095    1.275162
 step:   0.6614(harm=  0.7672)  dis= 0.16412  next Energy=  -532.596601 (dE=-0.260E+01)
 bond charge predicted
       N       E                     dE             d eps       ncg     rms          rms(c)
DAV:   1    -0.531969093687E+03    0.44818E+00   -0.18894E+02  1536   0.211E+01    0.465E+00
DAV:   2    -0.532520334462E+03   -0.55124E+00   -0.58634E+00  2208   0.470E+00    0.545E+00
DAV:   3    -0.532534493877E+03   -0.14159E-01   -0.34761E-01  2304   0.125E+00    0.440E+00
DAV:   4    -0.532556058092E+03   -0.21564E-01   -0.29736E-01  2784   0.116E+00    0.410E+00
DAV:   5    -0.532524926226E+03    0.31132E-01   -0.28296E-01  2400   0.110E+00    0.160E+00
DAV:   6    -0.532526372374E+03   -0.14461E-02   -0.55377E-02  2496   0.494E-01    0.744E-01
DAV:   7    -0.532527306556E+03   -0.93418E-03   -0.19873E-02  2448   0.346E-01    0.539E-01
DAV:   8    -0.532527594836E+03   -0.28828E-03   -0.68257E-03  2880   0.196E-01    0.332E-01
DAV:   9    -0.532528369190E+03   -0.77435E-03   -0.43494E-03  2448   0.128E-01    0.242E-01
DAV:  10    -0.532528794681E+03   -0.42549E-03   -0.21757E-03  2592   0.889E-02    0.114E-01
DAV:  11    -0.532529184464E+03   -0.38978E-03   -0.84914E-04  2352   0.554E-02    0.735E-02
DAV:  12    -0.532529446406E+03   -0.26194E-03   -0.33437E-04  2448   0.357E-02    0.423E-02
DAV:  13    -0.532529712752E+03   -0.26635E-03   -0.18045E-04  2688   0.205E-02    0.317E-02
DAV:  14    -0.532529933359E+03   -0.22061E-03   -0.13219E-04  2304   0.147E-02    0.209E-02
DAV:  15    -0.532530161442E+03   -0.22808E-03   -0.18825E-04  2400   0.136E-02    0.146E-02
DAV:  16    -0.532530288055E+03   -0.12661E-03   -0.90383E-05  2352   0.913E-03    0.124E-02
DAV:  17    -0.532530388316E+03   -0.10026E-03   -0.78662E-05  1920   0.706E-03    0.112E-02
DAV:  18    -0.532530509136E+03   -0.12082E-03   -0.15926E-04  2112   0.861E-03    0.104E-02
DAV:  19    -0.532530603868E+03   -0.94732E-04   -0.14990E-04  1968   0.793E-03    0.101E-02
DAV:  20    -0.532530690530E+03   -0.86662E-04   -0.19240E-04  2016   0.873E-03    0.996E-03
DAV:  21    -0.532530765054E+03   -0.74524E-04   -0.22067E-04  2016   0.918E-03    0.994E-03
DAV:  22    -0.532530795281E+03   -0.30227E-04   -0.48639E-05  1632   0.450E-03    0.100E-02
DAV:  23    -0.532530732788E+03    0.62493E-04   -0.22168E-04  1776   0.946E-03    0.107E-02
DAV:  24    -0.532530841930E+03   -0.10914E-03   -0.85264E-04  1968   0.181E-02    0.103E-02
DAV:  25    -0.532530977276E+03   -0.13535E-03   -0.94736E-03  2064   0.591E-02    0.117E-02
DAV:  26    -0.532531057078E+03   -0.79802E-04   -0.37538E-03  2160   0.371E-02    0.107E-02
DAV:  27    -0.532531112535E+03   -0.55457E-04   -0.53186E-04  2016   0.149E-02    0.100E-02
DAV:  28    -0.532531118396E+03   -0.58617E-05   -0.22590E-05  1392   0.426E-03    0.105E-02
DAV:  29    -0.532531127160E+03   -0.87640E-05   -0.41448E-06  1248   0.176E-03    0.111E-02
DAV:  30    -0.532531136596E+03   -0.94354E-05   -0.24342E-05  1248   0.305E-03    0.111E-02
DAV:  31    -0.532531166712E+03   -0.30116E-04   -0.16607E-04  1680   0.783E-03    0.120E-02
DAV:  32    -0.532531215814E+03   -0.49103E-04   -0.70929E-04  1872   0.161E-02    0.134E-02
DAV:  33    -0.532531304734E+03   -0.88920E-04   -0.19996E-03  1968   0.269E-02    0.152E-02
DAV:  34    -0.532531480964E+03   -0.17623E-03   -0.14819E-02  2112   0.735E-02    0.204E-02
DAV:  35    -0.532531617708E+03   -0.13674E-03   -0.77619E-04  2160   0.191E-02    0.198E-02
DAV:  36    -0.532531701599E+03   -0.83891E-04   -0.14785E-03  1920   0.229E-02    0.219E-02
DAV:  37    -0.532531757542E+03   -0.55943E-04   -0.34358E-04  1872   0.114E-02    0.229E-02
DAV:  38    -0.532531827970E+03   -0.70428E-04   -0.12249E-03  2016   0.209E-02    0.235E-02
DAV:  39    -0.532531965127E+03   -0.13716E-03   -0.71982E-03  2112   0.509E-02    0.231E-02
DAV:  40    -0.532532101257E+03   -0.13613E-03   -0.54895E-03  2112   0.442E-02    0.226E-02
DAV:  41    -0.532532159936E+03   -0.58678E-04   -0.64505E-05  1680   0.750E-03    0.229E-02
DAV:  42    -0.532532206993E+03   -0.47057E-04   -0.89311E-04  1872   0.177E-02    0.217E-02
DAV:  43    -0.532532265002E+03   -0.58009E-04   -0.16462E-03  1968   0.242E-02    0.198E-02
DAV:  44    -0.532532365108E+03   -0.10011E-03   -0.10641E-02  2112   0.617E-02    0.180E-02
DAV:  45    -0.532532487050E+03   -0.12194E-03   -0.26156E-03  2064   0.310E-02    0.145E-02
DAV:  46    -0.532532561919E+03   -0.74869E-04   -0.33014E-02  2112   0.109E-01    0.213E-02
DAV:  47    -0.532532736760E+03   -0.17484E-03   -0.49365E-04  2112   0.200E-02    0.139E-02
DAV:  48    -0.532532760146E+03   -0.23386E-04   -0.39493E-04  1728   0.121E-02    0.143E-02
DAV:  49    -0.532532782565E+03   -0.22420E-04   -0.28158E-04  1776   0.101E-02    0.146E-02
DAV:  50    -0.532532819493E+03   -0.36928E-04   -0.11808E-03  2016   0.203E-02    0.157E-02
DAV:  51    -0.532532877163E+03   -0.57670E-04   -0.80453E-03  2112   0.534E-02    0.203E-02
DAV:  52    -0.532532955138E+03   -0.77976E-04   -0.14622E-02  2112   0.716E-02    0.267E-02
DAV:  53    -0.532533062735E+03   -0.10760E-03   -0.62616E-03  2112   0.471E-02    0.284E-02
DAV:  54    -0.532533143351E+03   -0.80616E-04   -0.77862E-04  1872   0.179E-02    0.270E-02
DAV:  55    -0.532533179760E+03   -0.36410E-04   -0.11588E-03  1872   0.201E-02    0.281E-02
DAV:  56    -0.532533197720E+03   -0.17959E-04   -0.17138E-04  1776   0.835E-03    0.280E-02
DAV:  57    -0.532533197129E+03    0.59055E-06   -0.14949E-05  1344   0.312E-03    0.274E-02
DAV:  58    -0.532533198414E+03   -0.12849E-05   -0.22543E-05  1392   0.322E-03    0.271E-02
DAV:  59    -0.532533199041E+03   -0.62687E-06   -0.41167E-05  1536   0.419E-03    0.263E-02
DAV:  60    -0.532533198615E+03    0.42641E-06   -0.96241E-06  1152   0.213E-03
   5 F= -.53253320E+03 E0= -.53253298E+03  d E =-.253459E+01  mag=     4.9961
 curvature:  -0.14 expect dE=-0.438E+00 dE for cont linesearch -0.171E-02
 trial: gam= 0.10083 g(F)=  0.305E+01 g(S)=  0.000E+00 ort = 0.410E+00 (trialstep = 0.843E+00)
 search vector abs. value=  0.328E+01
 bond charge predicted
       N       E                     dE             d eps       ncg     rms          rms(c)
DAV:   1    -0.531747987146E+03    0.78521E+00   -0.57348E+02  1536   0.348E+01    0.107E+01
DAV:   2    -0.533658168391E+03   -0.19102E+01   -0.21614E+01  2256   0.901E+00    0.129E+01
DAV:   3    -0.533623547699E+03    0.34621E-01   -0.15851E+00  2208   0.265E+00    0.973E+00
DAV:   4    -0.533735996195E+03   -0.11245E+00   -0.14534E+00  2784   0.207E+00    0.815E+00
DAV:   5    -0.533670137848E+03    0.65858E-01   -0.31806E+00  2592   0.233E+00    0.481E+00
DAV:   6    -0.533590735059E+03    0.79403E-01   -0.77680E-01  2736   0.149E+00    0.163E+00
DAV:   7    -0.533593297107E+03   -0.25620E-02   -0.14953E-01  2256   0.818E-01    0.111E+00
DAV:   8    -0.533594728652E+03   -0.14315E-02   -0.46581E-02  2784   0.476E-01    0.781E-01
DAV:   9    -0.533594356183E+03    0.37247E-03   -0.16442E-02  2496   0.250E-01    0.479E-01
DAV:  10    -0.533595011415E+03   -0.65523E-03   -0.90605E-03  2448   0.188E-01    0.261E-01
DAV:  11    -0.533595486472E+03   -0.47506E-03   -0.29500E-03  2592   0.112E-01    0.142E-01
DAV:  12    -0.533595838201E+03   -0.35173E-03   -0.10253E-03  2688   0.713E-02    0.101E-01
DAV:  13    -0.533596066397E+03   -0.22820E-03   -0.41924E-04  2544   0.472E-02    0.701E-02
DAV:  14    -0.533596289986E+03   -0.22359E-03   -0.20685E-04  2256   0.264E-02    0.421E-02
DAV:  15    -0.533596519037E+03   -0.22905E-03   -0.15599E-04  2256   0.190E-02    0.270E-02
DAV:  16    -0.533596734980E+03   -0.21594E-03   -0.14233E-04  2496   0.157E-02    0.175E-02
DAV:  17    -0.533596861469E+03   -0.12649E-03   -0.67592E-05  2304   0.106E-02    0.124E-02
DAV:  18    -0.533596953592E+03   -0.92123E-04   -0.46911E-05  2112   0.740E-03    0.101E-02
DAV:  19    -0.533597079167E+03   -0.12557E-03   -0.12081E-04  2160   0.913E-03    0.811E-03
DAV:  20    -0.533597166087E+03   -0.86920E-04   -0.97335E-05  2064   0.791E-03    0.748E-03
DAV:  21    -0.533597214301E+03   -0.48215E-04   -0.51307E-05  1872   0.571E-03    0.719E-03
DAV:  22    -0.533597241024E+03   -0.26722E-04   -0.25131E-05  1440   0.387E-03    0.705E-03
DAV:  23    -0.533597272689E+03   -0.31666E-04   -0.45438E-05  1824   0.492E-03    0.692E-03
DAV:  24    -0.533597321928E+03   -0.49239E-04   -0.15384E-04  1920   0.863E-03    0.672E-03
DAV:  25    -0.533597382860E+03   -0.60931E-04   -0.43792E-04  1968   0.143E-02    0.687E-03
DAV:  26    -0.533597416404E+03   -0.33544E-04   -0.33358E-04  2064   0.125E-02    0.702E-03
DAV:  27    -0.533597418307E+03   -0.19037E-05   -0.93267E-06  1344   0.285E-03    0.729E-03
DAV:  28    -0.533597433697E+03   -0.15390E-04   -0.10687E-04  1584   0.729E-03    0.762E-03
DAV:  29    -0.533597458464E+03   -0.24767E-04   -0.60576E-04  2016   0.167E-02    0.845E-03
DAV:  30    -0.533597496518E+03   -0.38054E-04   -0.15247E-03  2016   0.264E-02    0.985E-03
DAV:  31    -0.533597548981E+03   -0.52463E-04   -0.34131E-03  2208   0.393E-02    0.121E-02
DAV:  32    -0.533597606726E+03   -0.57745E-04   -0.15481E-03  1968   0.265E-02    0.138E-02
DAV:  33    -0.533597636576E+03   -0.29850E-04   -0.88395E-05  1584   0.713E-03    0.145E-02
DAV:  34    -0.533597634954E+03    0.16222E-05   -0.11787E-05  1344   0.332E-03    0.150E-02
DAV:  35    -0.533597635578E+03   -0.62434E-06   -0.88724E-07  1152   0.124E-03
   6 F= -.53359764E+03 E0= -.53359764E+03  d E =-.106444E+01  mag=     5.0001
 trial-energy change:   -1.064437  1 .order   -0.940022   -2.608852    0.728809
 step:   0.6875(harm=  0.6591)  dis= 0.07361  next Energy=  -533.664151 (dE=-0.113E+01)
 bond charge predicted
       N       E                     dE             d eps       ncg     rms          rms(c)
DAV:   1    -0.533609407239E+03   -0.11772E-01   -0.19589E+01  1536   0.643E+00    0.268E+00
DAV:   2    -0.533668065331E+03   -0.58658E-01   -0.69662E-01  2304   0.160E+00    0.296E+00
DAV:   3    -0.533662178834E+03    0.58865E-02   -0.63623E-02  2352   0.503E-01    0.228E+00
DAV:   4    -0.533670981162E+03   -0.88023E-02   -0.80093E-02  2544   0.542E-01    0.176E+00
DAV:   5    -0.533660745197E+03    0.10236E-01   -0.62276E-02  2688   0.461E-01    0.530E-01
DAV:   6    -0.533661398138E+03   -0.65294E-03   -0.11728E-02  2400   0.203E-01    0.256E-01
DAV:   7    -0.533661468948E+03   -0.70810E-04   -0.22034E-03  2400   0.104E-01    0.178E-01
DAV:   8    -0.533661574891E+03   -0.10594E-03   -0.95116E-04  2688   0.680E-02    0.145E-01
DAV:   9    -0.533661690950E+03   -0.11606E-03   -0.55123E-04  2352   0.465E-02    0.785E-02
DAV:  10    -0.533661809928E+03   -0.11898E-03   -0.33168E-04  2304   0.348E-02    0.460E-02
DAV:  11    -0.533661854765E+03   -0.44837E-04   -0.12656E-04  2400   0.245E-02    0.307E-02
DAV:  12    -0.533661895351E+03   -0.40586E-04   -0.48880E-05  2640   0.128E-02    0.215E-02
DAV:  13    -0.533661937214E+03   -0.41863E-04   -0.50787E-05  2544   0.102E-02    0.153E-02
DAV:  14    -0.533661970776E+03   -0.33563E-04   -0.41640E-05  2256   0.782E-03    0.100E-02
DAV:  15    -0.533662004328E+03   -0.33552E-04   -0.51601E-05  1968   0.696E-03    0.710E-03
DAV:  16    -0.533662024644E+03   -0.20315E-04   -0.30292E-05  1680   0.508E-03    0.642E-03
DAV:  17    -0.533662045303E+03   -0.20659E-04   -0.41043E-05  1824   0.531E-03    0.580E-03
DAV:  18    -0.533662059777E+03   -0.14474E-04   -0.26789E-05  1536   0.425E-03    0.554E-03
DAV:  19    -0.533662075898E+03   -0.16121E-04   -0.44827E-05  1584   0.500E-03    0.528E-03
DAV:  20    -0.533662091562E+03   -0.15664E-04   -0.58798E-05  1728   0.561E-03    0.531E-03
DAV:  21    -0.533662102787E+03   -0.11226E-04   -0.35488E-05  1440   0.428E-03    0.529E-03
DAV:  22    -0.533662107512E+03   -0.47242E-05   -0.72813E-06  1152   0.237E-03    0.525E-03
DAV:  23    -0.533662116565E+03   -0.90531E-05   -0.31723E-05  1440   0.419E-03    0.521E-03
DAV:  24    -0.533662139041E+03   -0.22477E-04   -0.33917E-04  1968   0.126E-02    0.530E-03
DAV:  25    -0.533662160115E+03   -0.21073E-04   -0.47411E-04  2016   0.146E-02    0.537E-03
DAV:  26    -0.533662181718E+03   -0.21603E-04   -0.12196E-03  2160   0.233E-02    0.565E-03
DAV:  27    -0.533662210880E+03   -0.29162E-04   -0.20928E-03  2064   0.304E-02    0.637E-03
DAV:  28    -0.533662240964E+03   -0.30084E-04   -0.40991E-04  1824   0.138E-02    0.559E-03
DAV:  29    -0.533662245875E+03   -0.49110E-05   -0.28297E-05  1392   0.468E-03    0.576E-03
DAV:  30    -0.533662245362E+03    0.51316E-06   -0.20219E-05  1488   0.345E-03    0.612E-03
DAV:  31    -0.533662258231E+03   -0.12869E-04   -0.17164E-04  1680   0.897E-03    0.618E-03
DAV:  32    -0.533662286151E+03   -0.27920E-04   -0.20496E-03  1968   0.304E-02    0.797E-03
DAV:  33    -0.533662335639E+03   -0.49488E-04   -0.43821E-03  2208   0.441E-02    0.108E-02
DAV:  34    -0.533662397227E+03   -0.61588E-04   -0.36303E-03  2160   0.400E-02    0.135E-02
DAV:  35    -0.533662450305E+03   -0.53078E-04   -0.57209E-04  1824   0.164E-02    0.137E-02
DAV:  36    -0.533662478098E+03   -0.27793E-04   -0.45905E-04  1872   0.143E-02    0.158E-02
DAV:  37    -0.533662502209E+03   -0.24111E-04   -0.60127E-04  1776   0.163E-02    0.168E-02
DAV:  38    -0.533662523094E+03   -0.20885E-04   -0.32186E-04  1824   0.120E-02    0.177E-02
DAV:  39    -0.533662537613E+03   -0.14519E-04   -0.13003E-04  1632   0.776E-03    0.182E-02
DAV:  40    -0.533662558057E+03   -0.20445E-04   -0.65860E-04  1920   0.173E-02    0.182E-02
DAV:  41    -0.533662581798E+03   -0.23740E-04   -0.75243E-03  2208   0.581E-02    0.193E-02
DAV:  42    -0.533662638722E+03   -0.56924E-04   -0.85385E-05  1632   0.875E-03    0.191E-02
DAV:  43    -0.533662652523E+03   -0.13801E-04   -0.11816E-04  1632   0.734E-03    0.188E-02
DAV:  44    -0.533662665805E+03   -0.13282E-04   -0.54449E-04  1776   0.156E-02    0.189E-02
DAV:  45    -0.533662658912E+03    0.68930E-05   -0.20948E-04  1824   0.106E-02    0.199E-02
DAV:  46    -0.533662665003E+03   -0.60912E-05   -0.20692E-05  1200   0.347E-03    0.192E-02
DAV:  47    -0.533662665084E+03   -0.80705E-07   -0.12622E-05  1200   0.300E-03    0.194E-02
DAV:  48    -0.533662681367E+03   -0.16283E-04   -0.56333E-03  2160   0.508E-02    0.190E-02
DAV:  49    -0.533662722808E+03   -0.41441E-04   -0.55726E-05  1680   0.688E-03    0.172E-02
DAV:  50    -0.533662737113E+03   -0.14305E-04   -0.50147E-03  2160   0.474E-02    0.172E-02
DAV:  51    -0.533662773640E+03   -0.36528E-04   -0.26739E-05  1584   0.556E-03    0.171E-02
DAV:  52    -0.533662766452E+03    0.71881E-05   -0.65358E-05  1440   0.589E-03    0.169E-02
DAV:  53    -0.533662754903E+03    0.11549E-04   -0.43363E-04  1776   0.142E-02    0.158E-02
DAV:  54    -0.533662768963E+03   -0.14060E-04   -0.73133E-04  1776   0.190E-02    0.140E-02
DAV:  55    -0.533662737592E+03    0.31371E-04   -0.14600E-03  1920   0.262E-02    0.120E-02
DAV:  56    -0.533662738012E+03   -0.41989E-06   -0.17507E-04  1920   0.937E-03    0.994E-03
DAV:  57    -0.533662723087E+03    0.14925E-04   -0.45127E-04  1872   0.142E-02    0.921E-03
DAV:  58    -0.533662730852E+03   -0.77646E-05   -0.10521E-05  1296   0.304E-03    0.843E-03
DAV:  59    -0.533662732984E+03   -0.21318E-05   -0.42595E-06  1296   0.199E-03    0.831E-03
DAV:  60    -0.533662744713E+03   -0.11729E-04   -0.10107E-04  1680   0.710E-03    0.855E-03
DAV:  61    -0.533662753073E+03   -0.83602E-05   -0.10746E-04  1728   0.704E-03    0.897E-03
DAV:  62    -0.533662766506E+03   -0.13433E-04   -0.89259E-04  1728   0.200E-02    0.894E-03
DAV:  63    -0.533662779176E+03   -0.12670E-04   -0.71908E-05  1440   0.607E-03    0.907E-03
DAV:  64    -0.533662784578E+03   -0.54018E-05   -0.52351E-05  1440   0.504E-03    0.943E-03
DAV:  65    -0.533662789175E+03   -0.45978E-05   -0.42974E-05  1248   0.446E-03    0.972E-03
DAV:  66    -0.533662789750E+03   -0.57490E-06   -0.38275E-06  1104   0.176E-03
   7 F= -.53366279E+03 E0= -.53366279E+03  d E =-.112959E+01  mag=     5.0000
 curvature:  -0.34 expect dE=-0.572E+00 dE for cont linesearch -0.510E-04
 trial: gam= 0.54880 g(F)=  0.168E+01 g(S)=  0.000E+00 ort = 0.221E-01 (trialstep = 0.812E+00)
 search vector abs. value=  0.269E+01
 bond charge predicted
       N       E                     dE             d eps       ncg     rms          rms(c)
DAV:   1    -0.533055486546E+03    0.60730E+00   -0.43198E+02  1536   0.319E+01    0.751E+00
DAV:   2    -0.534405133426E+03   -0.13496E+01   -0.14989E+01  2208   0.793E+00    0.793E+00
DAV:   3    -0.534346441008E+03    0.58692E-01   -0.10109E+00  2352   0.232E+00    0.566E+00
DAV:   4    -0.534348937308E+03   -0.24963E-02   -0.56276E-01  2880   0.163E+00    0.431E+00
DAV:   5    -0.534325963865E+03    0.22973E-01   -0.48793E-01  2496   0.151E+00    0.212E+00
DAV:   6    -0.534316774735E+03    0.91891E-02   -0.18101E-01  2592   0.926E-01    0.991E-01
DAV:   7    -0.534316202026E+03    0.57271E-03   -0.42359E-02  2400   0.408E-01    0.597E-01
DAV:   8    -0.534315813600E+03    0.38843E-03   -0.96939E-03  2640   0.219E-01    0.337E-01
DAV:   9    -0.534316157649E+03   -0.34405E-03   -0.55906E-03  2448   0.139E-01    0.197E-01
DAV:  10    -0.534316346090E+03   -0.18844E-03   -0.20199E-03  2688   0.997E-02    0.972E-02
DAV:  11    -0.534316525413E+03   -0.17932E-03   -0.73015E-04  2400   0.607E-02    0.686E-02
DAV:  12    -0.534316666697E+03   -0.14128E-03   -0.21899E-04  2832   0.336E-02    0.406E-02
DAV:  13    -0.534316818336E+03   -0.15164E-03   -0.14294E-04  2448   0.221E-02    0.264E-02
DAV:  14    -0.534316935285E+03   -0.11695E-03   -0.10060E-04  2592   0.150E-02    0.196E-02
DAV:  15    -0.534317022328E+03   -0.87043E-04   -0.64811E-05  2352   0.104E-02    0.146E-02
DAV:  16    -0.534317087587E+03   -0.65259E-04   -0.49044E-05  2208   0.817E-03    0.125E-02
DAV:  17    -0.534317175406E+03   -0.87818E-04   -0.12014E-04  1968   0.945E-03    0.942E-03
DAV:  18    -0.534317247009E+03   -0.71603E-04   -0.13243E-04  2112   0.913E-03    0.798E-03
DAV:  19    -0.534317278171E+03   -0.31162E-04   -0.47002E-05  1776   0.556E-03    0.739E-03
DAV:  20    -0.534317290679E+03   -0.12508E-04   -0.14493E-05  1344   0.333E-03    0.715E-03
DAV:  21    -0.534317306245E+03   -0.15565E-04   -0.22742E-05  1536   0.373E-03    0.707E-03
DAV:  22    -0.534317340877E+03   -0.34633E-04   -0.12961E-04  1872   0.807E-03    0.696E-03
DAV:  23    -0.534317386051E+03   -0.45174E-04   -0.33510E-04  1968   0.126E-02    0.691E-03
DAV:  24    -0.534317417986E+03   -0.31935E-04   -0.28725E-04  1872   0.115E-02    0.698E-03
DAV:  25    -0.534317429456E+03   -0.11470E-04   -0.38155E-05  1536   0.457E-03    0.690E-03
DAV:  26    -0.534317419761E+03    0.96942E-05   -0.37503E-05  1488   0.468E-03    0.718E-03
DAV:  27    -0.534317443212E+03   -0.23451E-04   -0.23522E-04  1872   0.105E-02    0.736E-03
DAV:  28    -0.534317483578E+03   -0.40366E-04   -0.12466E-03  2016   0.240E-02    0.791E-03
DAV:  29    -0.534317541894E+03   -0.58316E-04   -0.28396E-03  2160   0.360E-02    0.873E-03
DAV:  30    -0.534317593638E+03   -0.51744E-04   -0.11214E-03  1920   0.227E-02    0.843E-03
DAV:  31    -0.534317620792E+03   -0.27154E-04   -0.18034E-04  1776   0.953E-03    0.815E-03
DAV:  32    -0.534317617342E+03    0.34502E-05   -0.24779E-05  1344   0.416E-03    0.862E-03
DAV:  33    -0.534317631862E+03   -0.14520E-04   -0.90660E-05  1536   0.672E-03    0.850E-03
DAV:  34    -0.534317694578E+03   -0.62716E-04   -0.36961E-03  2208   0.414E-02    0.105E-02
DAV:  35    -0.534317768710E+03   -0.74132E-04   -0.29061E-03  2016   0.363E-02    0.110E-02
DAV:  36    -0.534317821847E+03   -0.53137E-04   -0.77130E-04  1968   0.190E-02    0.104E-02
DAV:  37    -0.534317857477E+03   -0.35630E-04   -0.49627E-04  1824   0.151E-02    0.107E-02
DAV:  38    -0.534317883778E+03   -0.26301E-04   -0.27888E-04  1776   0.114E-02    0.108E-02
DAV:  39    -0.534317930235E+03   -0.46457E-04   -0.19308E-03  2064   0.298E-02    0.113E-02
DAV:  40    -0.534317977913E+03   -0.47678E-04   -0.97345E-04  2016   0.211E-02    0.104E-02
DAV:  41    -0.534318044462E+03   -0.66549E-04   -0.80033E-03  2160   0.607E-02    0.114E-02
DAV:  42    -0.534318102466E+03   -0.58004E-04   -0.56995E-05  1872   0.777E-03    0.873E-03
DAV:  43    -0.534318165106E+03   -0.62640E-04   -0.13624E-02  2208   0.794E-02    0.119E-02
DAV:  44    -0.534318224898E+03   -0.59792E-04   -0.70332E-04  2064   0.220E-02    0.685E-03
DAV:  45    -0.534318269698E+03   -0.44801E-04   -0.62171E-03  2160   0.540E-02    0.812E-03
DAV:  46    -0.534318341424E+03   -0.71726E-04   -0.38925E-03  2208   0.420E-02    0.803E-03
DAV:  47    -0.534318403857E+03   -0.62432E-04   -0.31585E-03  2160   0.378E-02    0.791E-03
DAV:  48    -0.534318452973E+03   -0.49116E-04   -0.82401E-04  1920   0.196E-02    0.689E-03
DAV:  49    -0.534318482548E+03   -0.29575E-04   -0.74655E-04  1824   0.184E-02    0.631E-03
DAV:  50    -0.534318516294E+03   -0.33746E-04   -0.43410E-03  2160   0.445E-02    0.776E-03
DAV:  51    -0.534318565503E+03   -0.49208E-04   -0.48081E-03  2208   0.465E-02    0.830E-03
DAV:  52    -0.534318619740E+03   -0.54237E-04   -0.76361E-04  1920   0.193E-02    0.590E-03
DAV:  53    -0.534318616962E+03    0.27774E-05   -0.17518E-02  2160   0.899E-02    0.139E-02
DAV:  54    -0.534318713478E+03   -0.96516E-04   -0.88310E-04  2160   0.262E-02    0.793E-03
DAV:  55    -0.534318631466E+03    0.82011E-04   -0.32451E-02  2112   0.124E-01    0.206E-02
DAV:  56    -0.534318810744E+03   -0.17928E-03   -0.92300E-04  2112   0.274E-02    0.954E-03
DAV:  57    -0.534318817405E+03   -0.66615E-05   -0.16443E-03  1968   0.278E-02    0.107E-02
DAV:  58    -0.534318821529E+03   -0.41233E-05   -0.25050E-03  2160   0.338E-02    0.141E-02
DAV:  59    -0.534318846009E+03   -0.24481E-04   -0.24653E-05  1728   0.512E-03    0.128E-02
DAV:  60    -0.534318849839E+03   -0.38299E-05   -0.19673E-05  1440   0.329E-03    0.125E-02
DAV:  61    -0.534318852813E+03   -0.29737E-05   -0.35392E-05  1536   0.411E-03    0.126E-02
DAV:  62    -0.534318849979E+03    0.28336E-05   -0.38710E-04  1776   0.135E-02    0.149E-02
DAV:  63    -0.534318876362E+03   -0.26383E-04   -0.23877E-04  1776   0.139E-02    0.775E-03
DAV:  64    -0.534318856571E+03    0.19791E-04   -0.77675E-03  2160   0.604E-02    0.136E-02
DAV:  65    -0.534318913499E+03   -0.56928E-04   -0.53354E-05  1824   0.857E-03    0.861E-03
DAV:  66    -0.534318915197E+03   -0.16974E-05   -0.10017E-03  1872   0.215E-02    0.104E-02
DAV:  67    -0.534318932025E+03   -0.16829E-04   -0.64066E-05  1584   0.627E-03    0.834E-03
DAV:  68    -0.534318939234E+03   -0.72087E-05   -0.40220E-04  1776   0.136E-02    0.806E-03
DAV:  69    -0.534318943882E+03   -0.46475E-05   -0.41321E-04  2112   0.138E-02    0.906E-03
DAV:  70    -0.534318951880E+03   -0.79982E-05   -0.19575E-04  1776   0.942E-03    0.850E-03
DAV:  71    -0.534318960316E+03   -0.84357E-05   -0.38460E-04  1776   0.132E-02    0.782E-03
DAV:  72    -0.534318956054E+03    0.42616E-05   -0.34073E-04  1824   0.168E-02    0.759E-03
DAV:  73    -0.534318967161E+03   -0.11107E-04   -0.16908E-03  2016   0.282E-02    0.604E-03
DAV:  74    -0.534318978110E+03   -0.10949E-04   -0.18512E-05  1584   0.417E-03    0.545E-03
DAV:  75    -0.534318974662E+03    0.34485E-05   -0.57689E-05  1536   0.529E-03    0.553E-03
DAV:  76    -0.534318967603E+03    0.70585E-05   -0.17744E-04  1776   0.899E-03    0.578E-03
DAV:  77    -0.534318931334E+03    0.36269E-04   -0.19930E-03  1968   0.301E-02    0.794E-03
DAV:  78    -0.534318903172E+03    0.28162E-04   -0.17426E-03  2016   0.280E-02    0.107E-02
DAV:  79    -0.534318902386E+03    0.78555E-06   -0.43627E-04  1776   0.142E-02    0.108E-02
DAV:  80    -0.534318859950E+03    0.42436E-04   -0.23908E-03  2208   0.328E-02    0.127E-02
DAV:  81    -0.534318862227E+03   -0.22765E-05   -0.63795E-04  1776   0.171E-02    0.113E-02
DAV:  82    -0.534318902007E+03   -0.39781E-04   -0.17547E-03  1920   0.296E-02    0.611E-03
DAV:  83    -0.534318816334E+03    0.85674E-04   -0.81381E-03  2112   0.619E-02    0.982E-03
DAV:  84    -0.534318805610E+03    0.10724E-04   -0.22753E-03  2112   0.322E-02    0.888E-03
DAV:  85    -0.534318789135E+03    0.16474E-04   -0.17470E-03  2160   0.281E-02    0.777E-03
DAV:  86    -0.534318798446E+03   -0.93112E-05   -0.14030E-04  1824   0.866E-03    0.729E-03
DAV:  87    -0.534318824910E+03   -0.26463E-04   -0.31972E-03  2016   0.390E-02    0.628E-03
DAV:  88    -0.534318829109E+03   -0.41990E-05   -0.41321E-04  1824   0.152E-02    0.655E-03
DAV:  89    -0.534318837528E+03   -0.84198E-05   -0.13234E-04  1680   0.834E-03    0.628E-03
DAV:  90    -0.534318847608E+03   -0.10080E-04   -0.98306E-04  1872   0.212E-02
 -----------------------------------------------------------------------------
|                                                                             |
|           W    W    AA    RRRRR   N    N  II  N    N   GGGG   !!!           |
|           W    W   A  A   R    R  NN   N  II  NN   N  G    G  !!!           |
|           W    W  A    A  R    R  N N  N  II  N N  N  G       !!!           |
|           W WW W  AAAAAA  RRRRR   N  N N  II  N  N N  G  GGG   !            |
|           WW  WW  A    A  R   R   N   NN  II  N   NN  G    G                |
|           W    W  A    A  R    R  N    N  II  N    N   GGGG   !!!           |
|                                                                             |
|     The electronic self-consistency was not achieved in the given           |
|     number of steps (NELM). The forces and other quantities evaluated       |
|     might not be reliable so examine the results carefully. If you find     |
|     spurious results, we suggest increasing NELM, if you were close to      |
|     convergence or switching to a different ALGO or adjusting the           |
|     density mixing parameters otherwise.                                    |
|                                                                             |
 -----------------------------------------------------------------------------

   8 F= -.53431885E+03 E0= -.53431885E+03  d E =-.656058E+00  mag=     5.0000
 trial-energy change:   -0.656058  1 .order   -0.676361   -1.371690    0.018968
 step:   0.7999(harm=  0.8010)  dis= 0.07385  next Energy=  -534.318989 (dE=-0.656E+00)
 bond charge predicted
       N       E                     dE             d eps       ncg     rms          rms(c)
DAV:   1    -0.534318762519E+03    0.75009E-04   -0.96702E-02  1536   0.478E-01    0.997E-02
DAV:   2    -0.534319018052E+03   -0.25553E-03   -0.29549E-03  2400   0.112E-01    0.108E-01
DAV:   3    -0.534319014969E+03    0.30822E-05   -0.21430E-04  2400   0.308E-02    0.775E-02
DAV:   4    -0.534319017274E+03   -0.23041E-05   -0.90303E-05  2736   0.201E-02    0.604E-02
DAV:   5    -0.534319018236E+03   -0.96212E-06   -0.94491E-05  2352   0.195E-02    0.256E-02
DAV:   6    -0.534319019800E+03   -0.15643E-05   -0.40011E-05  2496   0.129E-02    0.136E-02
DAV:   7    -0.534319020854E+03   -0.10540E-05   -0.97884E-06  2304   0.602E-03    0.781E-03
DAV:   8    -0.534319022154E+03   -0.13001E-05   -0.53025E-06  1584   0.358E-03    0.497E-03
DAV:   9    -0.534319024098E+03   -0.19438E-05   -0.84268E-06  1296   0.347E-03    0.355E-03
DAV:  10    -0.534319025552E+03   -0.14541E-05   -0.46125E-06  1248   0.266E-03    0.282E-03
DAV:  11    -0.534319026685E+03   -0.11331E-05   -0.28708E-06  1248   0.198E-03    0.255E-03
DAV:  12    -0.534319027821E+03   -0.11362E-05   -0.30239E-06  1152   0.186E-03    0.248E-03
DAV:  13    -0.534319028973E+03   -0.11518E-05   -0.32902E-06  1440   0.171E-03    0.242E-03
DAV:  14    -0.534319030315E+03   -0.13421E-05   -0.45674E-06  1152   0.180E-03    0.237E-03
DAV:  15    -0.534319033170E+03   -0.28547E-05   -0.26431E-05  1392   0.367E-03    0.239E-03
DAV:  16    -0.534319035416E+03   -0.22458E-05   -0.12496E-05  1248   0.273E-03    0.235E-03
DAV:  17    -0.534319036819E+03   -0.14033E-05   -0.48409E-06  1152   0.190E-03    0.236E-03
DAV:  18    -0.534319037230E+03   -0.41117E-06   -0.62367E-07  1104   0.104E-03
   9 F= -.53431904E+03 E0= -.53431904E+03  d E =-.656247E+00  mag=     5.0000
 curvature:  -0.63 expect dE=-0.113E+01 dE for cont linesearch -0.392E-09
 trial: gam= 1.02827 g(F)=  0.180E+01 g(S)=  0.000E+00 ort = 0.409E-04 (trialstep = 0.469E+00)
 search vector abs. value=  0.464E+01
 bond charge predicted
       N       E                     dE             d eps       ncg     rms          rms(c)
DAV:   1    -0.534181271400E+03    0.13777E+00   -0.24801E+02  1536   0.234E+01    0.503E+00
DAV:   2    -0.534852431975E+03   -0.67116E+00   -0.75050E+00  2208   0.551E+00    0.488E+00
DAV:   3    -0.534845650317E+03    0.67817E-02   -0.40673E-01  2208   0.149E+00    0.353E+00
DAV:   4    -0.534834239067E+03    0.11411E-01   -0.20002E-01  2592   0.967E-01    0.252E+00
DAV:   5    -0.534830595581E+03    0.36435E-02   -0.17285E-01  2736   0.913E-01    0.116E+00
DAV:   6    -0.534828411237E+03    0.21843E-02   -0.58213E-02  2640   0.572E-01    0.551E-01
DAV:   7    -0.534829133015E+03   -0.72178E-03   -0.13824E-02  2496   0.240E-01    0.336E-01
DAV:   8    -0.534829526179E+03   -0.39316E-03   -0.48709E-03  2736   0.146E-01    0.216E-01
DAV:   9    -0.534829870462E+03   -0.34428E-03   -0.18456E-03  2448   0.913E-02    0.115E-01
DAV:  10    -0.534830152213E+03   -0.28175E-03   -0.61895E-04  2592   0.511E-02    0.659E-02
DAV:  11    -0.534830355467E+03   -0.20325E-03   -0.23781E-04  2544   0.327E-02    0.410E-02
DAV:  12    -0.534830527393E+03   -0.17193E-03   -0.11848E-04  2352   0.202E-02    0.245E-02
DAV:  13    -0.534830629597E+03   -0.10220E-03   -0.58383E-05  2736   0.140E-02    0.187E-02
DAV:  14    -0.534830704389E+03   -0.74792E-04   -0.29808E-05  2400   0.889E-03    0.153E-02
DAV:  15    -0.534830768589E+03   -0.64200E-04   -0.25142E-05  2064   0.614E-03    0.127E-02
DAV:  16    -0.534830883861E+03   -0.11527E-03   -0.10370E-04  2016   0.931E-03    0.857E-03
DAV:  17    -0.534830961721E+03   -0.77859E-04   -0.75842E-05  2064   0.766E-03    0.700E-03
DAV:  18    -0.534830994533E+03   -0.32812E-04   -0.22411E-05  1728   0.439E-03    0.618E-03
DAV:  19    -0.534831017701E+03   -0.23168E-04   -0.18021E-05  1440   0.365E-03    0.578E-03
DAV:  20    -0.534831038765E+03   -0.21064E-04   -0.21437E-05  1680   0.374E-03    0.558E-03
DAV:  21    -0.534831063059E+03   -0.24294E-04   -0.33960E-05  1680   0.433E-03    0.545E-03
DAV:  22    -0.534831097935E+03   -0.34876E-04   -0.96156E-05  1968   0.686E-03    0.534E-03
DAV:  23    -0.534831135211E+03   -0.37276E-04   -0.19963E-04  2016   0.960E-03    0.537E-03
DAV:  24    -0.534831154547E+03   -0.19336E-04   -0.10731E-04  1824   0.699E-03    0.538E-03
DAV:  25    -0.534831160089E+03   -0.55421E-05   -0.89959E-06  1344   0.235E-03    0.531E-03
DAV:  26    -0.534831154128E+03    0.59616E-05   -0.14004E-05  1296   0.289E-03    0.551E-03
DAV:  27    -0.534831169533E+03   -0.15405E-04   -0.14610E-04  1728   0.814E-03    0.560E-03
DAV:  28    -0.534831187560E+03   -0.18027E-04   -0.58121E-04  2016   0.161E-02    0.590E-03
DAV:  29    -0.534831207149E+03   -0.19589E-04   -0.65759E-04  1920   0.171E-02    0.605E-03
DAV:  30    -0.534831226930E+03   -0.19781E-04   -0.46229E-04  1824   0.143E-02    0.603E-03
DAV:  31    -0.534831240077E+03   -0.13147E-04   -0.78450E-05  1488   0.619E-03    0.573E-03
DAV:  32    -0.534831246875E+03   -0.67981E-05   -0.29437E-05  1488   0.395E-03    0.573E-03
DAV:  33    -0.534831265322E+03   -0.18447E-04   -0.41682E-04  1824   0.137E-02    0.592E-03
DAV:  34    -0.534831290940E+03   -0.25618E-04   -0.71011E-04  1968   0.177E-02    0.600E-03
DAV:  35    -0.534831333079E+03   -0.42139E-04   -0.80207E-03  2208   0.599E-02    0.911E-03
DAV:  36    -0.534831397966E+03   -0.64887E-04   -0.16377E-04  1968   0.106E-02    0.558E-03
DAV:  37    -0.534831434743E+03   -0.36777E-04   -0.37698E-03  2160   0.409E-02    0.733E-03
DAV:  38    -0.534831473633E+03   -0.38890E-04   -0.39558E-05  1776   0.590E-03    0.509E-03
DAV:  39    -0.534831497904E+03   -0.24271E-04   -0.11537E-03  1968   0.225E-02    0.568E-03
DAV:  40    -0.534831532342E+03   -0.34438E-04   -0.47255E-03  2160   0.458E-02    0.772E-03
DAV:  41    -0.534831584646E+03   -0.52303E-04   -0.43720E-04  1872   0.147E-02    0.515E-03
DAV:  42    -0.534831609013E+03   -0.24368E-04   -0.44736E-03  2112   0.446E-02    0.759E-03
DAV:  43    -0.534831661614E+03   -0.52600E-04   -0.10025E-03  1920   0.214E-02    0.543E-03
DAV:  44    -0.534831690451E+03   -0.28837E-04   -0.26341E-03  2112   0.340E-02    0.620E-03
DAV:  45    -0.534831711936E+03   -0.21485E-04   -0.71357E-03  2208   0.561E-02    0.914E-03
DAV:  46    -0.534831766619E+03   -0.54683E-04   -0.47200E-03  2160   0.454E-02    0.813E-03
DAV:  47    -0.534831816932E+03   -0.50313E-04   -0.16178E-03  1968   0.268E-02    0.598E-03
DAV:  48    -0.534831829267E+03   -0.12335E-04   -0.46311E-03  2208   0.451E-02    0.807E-03
DAV:  49    -0.534831865733E+03   -0.36466E-04   -0.20033E-03  2016   0.298E-02    0.648E-03
DAV:  50    -0.534831884767E+03   -0.19034E-04   -0.24454E-03  2160   0.326E-02    0.599E-03
DAV:  51    -0.534831850292E+03    0.34475E-04   -0.11274E-02  2160   0.707E-02    0.125E-02
DAV:  52    -0.534831939983E+03   -0.89692E-04   -0.20509E-04  2208   0.150E-02    0.354E-03
DAV:  53    -0.534831913534E+03    0.26450E-04   -0.47958E-03  2160   0.467E-02    0.958E-03
DAV:  54    -0.534831953497E+03   -0.39963E-04   -0.17039E-04  1968   0.116E-02    0.466E-03
DAV:  55    -0.534831949785E+03    0.37121E-05   -0.59699E-04  1776   0.166E-02    0.650E-03
DAV:  56    -0.534831947347E+03    0.24376E-05   -0.10995E-03  2016   0.220E-02    0.786E-03
DAV:  57    -0.534831954052E+03   -0.67048E-05   -0.51262E-04  1776   0.150E-02    0.758E-03
DAV:  58    -0.534831962143E+03   -0.80912E-05   -0.40480E-04  1872   0.134E-02    0.627E-03
DAV:  59    -0.534831968138E+03   -0.59949E-05   -0.34252E-04  1824   0.123E-02    0.520E-03
DAV:  60    -0.534831970019E+03   -0.18806E-05   -0.45244E-04  1872   0.140E-02    0.520E-03
DAV:  61    -0.534831975288E+03   -0.52693E-05   -0.13474E-04  1680   0.782E-03    0.429E-03
DAV:  62    -0.534831978722E+03   -0.34335E-05   -0.10926E-04  1680   0.709E-03    0.325E-03
DAV:  63    -0.534831981141E+03   -0.24197E-05   -0.44761E-05  1440   0.467E-03    0.235E-03
DAV:  64    -0.534831982854E+03   -0.17124E-05   -0.21834E-06  1200   0.158E-03    0.192E-03
DAV:  65    -0.534831982943E+03   -0.89152E-07   -0.28050E-05  1440   0.382E-03    0.182E-03
DAV:  66    -0.534831981874E+03    0.10690E-05   -0.14670E-04  1728   0.824E-03    0.176E-03
DAV:  67    -0.534831983108E+03   -0.12343E-05   -0.69695E-05  1488   0.564E-03    0.156E-03
DAV:  68    -0.534831983432E+03   -0.32377E-06   -0.86586E-05  1584   0.629E-03    0.187E-03
DAV:  69    -0.534831986288E+03   -0.28556E-05   -0.21130E-05  1392   0.369E-03    0.795E-04
DAV:  70    -0.534831986585E+03   -0.29775E-06   -0.74842E-06  1200   0.216E-03
  10 F= -.53483199E+03 E0= -.53483199E+03  d E =-.512949E+00  mag=     5.0000
 trial-energy change:   -0.512949  1 .order   -0.513707   -0.842583   -0.184831
 step:   0.6012(harm=  0.6012)  dis= 0.07741  next Energy=  -534.858713 (dE=-0.540E+00)
 bond charge predicted
       N       E                     dE             d eps       ncg     rms          rms(c)
DAV:   1    -0.534811712232E+03    0.20274E-01   -0.19610E+01  1536   0.656E+00    0.128E+00
DAV:   2    -0.534858111922E+03   -0.46400E-01   -0.52735E-01  2112   0.146E+00    0.121E+00
DAV:   3    -0.534859053236E+03   -0.94131E-03   -0.34012E-02  2352   0.404E-01    0.853E-01
DAV:   4    -0.534858093493E+03    0.95974E-03   -0.16996E-02  2544   0.270E-01    0.598E-01
DAV:   5    -0.534857823455E+03    0.27004E-03   -0.10003E-02  2736   0.232E-01    0.277E-01
DAV:   6    -0.534857818605E+03    0.48502E-05   -0.30733E-03  2592   0.131E-01    0.140E-01
DAV:   7    -0.534857880295E+03   -0.61689E-04   -0.86974E-04  2496   0.638E-02    0.885E-02
DAV:   8    -0.534857944622E+03   -0.64328E-04   -0.38153E-04  2688   0.422E-02    0.580E-02
DAV:   9    -0.534857988963E+03   -0.44341E-04   -0.13961E-04  2592   0.269E-02    0.283E-02
DAV:  10    -0.534858020102E+03   -0.31139E-04   -0.42581E-05  2592   0.139E-02    0.171E-02
DAV:  11    -0.534858044082E+03   -0.23980E-04   -0.12941E-05  2544   0.750E-03    0.987E-03
DAV:  12    -0.534858072133E+03   -0.28051E-04   -0.71037E-06  2112   0.482E-03    0.621E-03
DAV:  13    -0.534858085423E+03   -0.13289E-04   -0.23983E-06  1632   0.357E-03    0.506E-03
[...]
DAV:   4    -0.540563582853E+03   -0.27291E-06   -0.78222E-05  2496   0.185E-02    0.475E-02
DAV:   5    -0.540563585002E+03   -0.21497E-05   -0.56465E-05  2496   0.215E-02    0.202E-02
DAV:   6    -0.540563583910E+03    0.10926E-05   -0.18646E-05  2544   0.144E-02    0.101E-02
DAV:   7    -0.540563584473E+03   -0.56319E-06   -0.52817E-06  2064   0.531E-03
 284 F= -.54056358E+03 E0= -.54056358E+03  d E =-.517330E-03  mag=     5.0000
 curvature:  -0.73 expect dE=-0.685E-03 dE for cont linesearch -0.182E-06
 trial: gam= 1.17203 g(F)=  0.938E-03 g(S)=  0.000E+00 ort = 0.277E-04 (trialstep = 0.313E+00)
 search vector abs. value=  0.525E-02
 bond charge predicted
       N       E                     dE             d eps       ncg     rms          rms(c)
DAV:   1    -0.540563514126E+03    0.69784E-04   -0.13066E-01  1536   0.568E-01    0.807E-02
DAV:   2    -0.540563814417E+03   -0.30029E-03   -0.32921E-03  1968   0.120E-01    0.767E-02
DAV:   3    -0.540563828733E+03   -0.14316E-04   -0.18732E-04  2496   0.262E-02    0.567E-02
DAV:   4    -0.540563825933E+03    0.27999E-05   -0.62711E-05  2592   0.168E-02    0.405E-02
DAV:   5    -0.540563828126E+03   -0.21935E-05   -0.42667E-05  2400   0.151E-02    0.159E-02
DAV:   6    -0.540563830062E+03   -0.19359E-05   -0.17197E-05  2496   0.108E-02    0.106E-02
DAV:   7    -0.540563830665E+03   -0.60227E-06   -0.37504E-06  1872   0.485E-03
 285 F= -.54056383E+03 E0= -.54056383E+03  d E =-.246192E-03  mag=     5.0000
 trial-energy change:   -0.000246  1 .order   -0.000243   -0.000304   -0.000182
 step:   0.7819(harm=  0.7819)  dis= 0.00483  next Energy=  -540.563964 (dE=-0.380E-03)
 bond charge predicted
       N       E                     dE             d eps       ncg     rms          rms(c)
DAV:   1    -0.540563263118E+03    0.56694E-03   -0.29247E-01  1536   0.849E-01    0.122E-01
DAV:   2    -0.540563946776E+03   -0.68366E-03   -0.74544E-03  1968   0.179E-01    0.114E-01
DAV:   3    -0.540563978663E+03   -0.31887E-04   -0.42959E-04  2496   0.396E-02    0.841E-02
DAV:   4    -0.540563973472E+03    0.51913E-05   -0.15354E-04  2688   0.256E-02    0.612E-02
DAV:   5    -0.540563975047E+03   -0.15752E-05   -0.84562E-05  2400   0.217E-02    0.243E-02
DAV:   6    -0.540563979192E+03   -0.41456E-05   -0.36391E-05  2544   0.159E-02    0.159E-02
DAV:   7    -0.540563980297E+03   -0.11044E-05   -0.88197E-06  2352   0.733E-03    0.878E-03
DAV:   8    -0.540563981612E+03   -0.13152E-05   -0.29087E-06  1728   0.377E-03    0.621E-03
DAV:   9    -0.540563982777E+03   -0.11653E-05   -0.31998E-06  1392   0.330E-03    0.413E-03
DAV:  10    -0.540563983627E+03   -0.85029E-06   -0.26401E-06  1248   0.281E-03
 286 F= -.54056398E+03 E0= -.54056398E+03  d E =-.399155E-03  mag=     5.0000
 curvature:  -2.12 expect dE=-0.222E-02 dE for cont linesearch -0.389E-06
 trial: gam= 0.99730 g(F)=  0.105E-02 g(S)=  0.000E+00 ort = 0.311E-04 (trialstep = 0.337E+00)
 search vector abs. value=  0.634E-02
 bond charge predicted
       N       E                     dE             d eps       ncg     rms          rms(c)
DAV:   1    -0.540563811839E+03    0.17094E-03   -0.18403E-01  1536   0.679E-01    0.108E-01
DAV:   2    -0.540564242215E+03   -0.43038E-03   -0.47551E-03  2016   0.145E-01    0.111E-01
DAV:   3    -0.540564271639E+03   -0.29424E-04   -0.32301E-04  2544   0.352E-02    0.806E-02
DAV:   4    -0.540564270444E+03    0.11949E-05   -0.11608E-04  2688   0.228E-02    0.619E-02
DAV:   5    -0.540564271979E+03   -0.15347E-05   -0.81093E-05  2448   0.244E-02    0.249E-02
DAV:   6    -0.540564272875E+03   -0.89641E-06   -0.27377E-05  2448   0.162E-02    0.147E-02
DAV:   7    -0.540564273866E+03   -0.99123E-06   -0.62914E-06  2112   0.614E-03
 287 F= -.54056427E+03 E0= -.54056427E+03  d E =-.290239E-03  mag=     5.0000
 trial-energy change:   -0.000290  1 .order   -0.000288   -0.000365   -0.000211
 step:   0.7997(harm=  0.7997)  dis= 0.00529  next Energy=  -540.564416 (dE=-0.433E-03)
 bond charge predicted
       N       E                     dE             d eps       ncg     rms          rms(c)
DAV:   1    -0.540563545229E+03    0.72765E-03   -0.34560E-01  1536   0.931E-01    0.150E-01
DAV:   2    -0.540564359778E+03   -0.81455E-03   -0.89441E-03  1968   0.199E-01    0.153E-01
DAV:   3    -0.540564417272E+03   -0.57493E-04   -0.63146E-04  2496   0.504E-02    0.110E-01
DAV:   4    -0.540564415715E+03    0.15561E-05   -0.23962E-04  2784   0.325E-02    0.848E-02
DAV:   5    -0.540564416115E+03   -0.39959E-06   -0.13725E-04  2448   0.320E-02    0.331E-02
DAV:   6    -0.540564418031E+03   -0.19161E-05   -0.45361E-05  2400   0.218E-02    0.205E-02
DAV:   7    -0.540564419711E+03   -0.16803E-05   -0.11542E-05  2400   0.860E-03    0.109E-02
DAV:   8    -0.540564422611E+03   -0.29000E-05   -0.34784E-06  1680   0.487E-03    0.911E-03
DAV:   9    -0.540564425989E+03   -0.33780E-05   -0.30920E-06  1680   0.393E-03    0.576E-03
DAV:  10    -0.540564429791E+03   -0.38018E-05   -0.35046E-06  1296   0.324E-03    0.279E-03
DAV:  11    -0.540564431655E+03   -0.18635E-05   -0.14839E-06  1152   0.269E-03    0.227E-03
DAV:  12    -0.540564432838E+03   -0.11835E-05   -0.92074E-07  1152   0.200E-03    0.176E-03
DAV:  13    -0.540564433862E+03   -0.10239E-05   -0.80334E-07  1104   0.175E-03    0.166E-03
DAV:  14    -0.540564435015E+03   -0.11534E-05   -0.11683E-06  1104   0.153E-03    0.149E-03
DAV:  15    -0.540564436462E+03   -0.14462E-05   -0.23217E-06  1152   0.167E-03    0.150E-03
DAV:  16    -0.540564437291E+03   -0.82981E-06   -0.99886E-07  1152   0.132E-03
 288 F= -.54056444E+03 E0= -.54056444E+03  d E =-.453664E-03  mag=     5.0000
 curvature:  -2.34 expect dE=-0.302E-02 dE for cont linesearch -0.769E-08
 trial: gam= 1.28523 g(F)=  0.129E-02 g(S)=  0.000E+00 ort = 0.456E-05 (trialstep = 0.231E+00)
 search vector abs. value=  0.118E-01
 bond charge predicted
       N       E                     dE             d eps       ncg     rms          rms(c)
DAV:   1    -0.540564292431E+03    0.14403E-03   -0.16072E-01  1536   0.631E-01    0.895E-02
DAV:   2    -0.540564668072E+03   -0.37564E-03   -0.40708E-03  2016   0.132E-01    0.757E-02
DAV:   3    -0.540564688970E+03   -0.20898E-04   -0.24022E-04  2640   0.292E-02    0.535E-02
DAV:   4    -0.540564686454E+03    0.25160E-05   -0.66064E-05  2448   0.169E-02    0.376E-02
DAV:   5    -0.540564689245E+03   -0.27903E-05   -0.41605E-05  2496   0.174E-02    0.188E-02
DAV:   6    -0.540564689387E+03   -0.14219E-06   -0.15912E-05  2544   0.123E-02    0.894E-03
DAV:   7    -0.540564689991E+03   -0.60416E-06   -0.31441E-06  1728   0.468E-03
 289 F= -.54056469E+03 E0= -.54056469E+03  d E =-.252700E-03  mag=     5.0000
 trial-energy change:   -0.000253  1 .order   -0.000247   -0.000300   -0.000195
 step:   0.4928(harm=  0.6628)  dis= 0.00506  next Energy=  -540.564808 (dE=-0.370E-03)
 bond charge predicted
       N       E                     dE             d eps       ncg     rms          rms(c)
DAV:   1    -0.540564342227E+03    0.34716E-03   -0.20504E-01  1536   0.713E-01    0.102E-01
DAV:   2    -0.540564821909E+03   -0.47968E-03   -0.52020E-03  1968   0.149E-01    0.870E-02
DAV:   3    -0.540564850075E+03   -0.28165E-04   -0.31716E-04  2544   0.345E-02    0.604E-02
DAV:   4    -0.540564847522E+03    0.25521E-05   -0.93999E-05  2592   0.199E-02    0.430E-02
DAV:   5    -0.540564849916E+03   -0.23935E-05   -0.47405E-05  2400   0.184E-02    0.201E-02
DAV:   6    -0.540564850824E+03   -0.90819E-06   -0.16920E-05  2496   0.133E-02    0.105E-02
DAV:   7    -0.540564851584E+03   -0.75952E-06   -0.34888E-06  1728   0.521E-03
 290 F= -.54056485E+03 E0= -.54056485E+03  d E =-.414292E-03  mag=     5.0000
 curvature:  -2.54 expect dE=-0.139E-02 dE for cont linesearch -0.254E-04
 ZBRENT: increasing intervall
 opt :   1.0155  next Energy=  -540.564770 (dE=-0.332E-03)
 bond charge predicted
       N       E                     dE             d eps       ncg     rms          rms(c)
DAV:   1    -0.540562757446E+03    0.20934E-02   -0.82003E-01  1536   0.143E+00    0.203E-01
DAV:   2    -0.540564700271E+03   -0.19428E-02   -0.20792E-02  2016   0.297E-01    0.171E-01
DAV:   3    -0.540564794269E+03   -0.93999E-04   -0.12164E-03  2640   0.657E-02    0.121E-01
DAV:   4    -0.540564773630E+03    0.20640E-04   -0.32944E-04  2544   0.378E-02    0.847E-02
DAV:   5    -0.540564779102E+03   -0.54727E-05   -0.19530E-04  2448   0.386E-02    0.422E-02
DAV:   6    -0.540564777879E+03    0.12231E-05   -0.74110E-05  2544   0.273E-02    0.194E-02
DAV:   7    -0.540564780334E+03   -0.24544E-05   -0.14866E-05  2592   0.982E-03    0.120E-02
DAV:   8    -0.540564781803E+03   -0.14689E-05   -0.43955E-06  1824   0.544E-03    0.878E-03
DAV:   9    -0.540564783644E+03   -0.18417E-05   -0.42272E-06  1872   0.434E-03    0.536E-03
DAV:  10    -0.540564785295E+03   -0.16512E-05   -0.27126E-06  1344   0.321E-03    0.258E-03
DAV:  11    -0.540564786246E+03   -0.95056E-06   -0.11890E-06  1200   0.229E-03
 291 F= -.54056479E+03 E0= -.54056479E+03  d E =-.348955E-03  mag=     5.0000
 curvature:   8.21 expect dE= 0.175E-01 dE for cont linesearch  0.300E-03
 ZBRENT: bracketing found
 ZBRENT: interpolating
 opt :   0.6723  next Energy=  -540.564882 (dE=-0.445E-03)
 bond charge predicted
       N       E                     dE             d eps       ncg     rms          rms(c)
DAV:   1    -0.540564020658E+03    0.76464E-03   -0.35338E-01  1536   0.936E-01    0.132E-01
DAV:   2    -0.540564853834E+03   -0.83318E-03   -0.89415E-03  2016   0.194E-01    0.113E-01
DAV:   3    -0.540564895437E+03   -0.41603E-04   -0.51770E-04  2640   0.434E-02    0.797E-02
DAV:   4    -0.540564888892E+03    0.65458E-05   -0.13686E-04  2448   0.247E-02    0.559E-02
DAV:   5    -0.540564893744E+03   -0.48521E-05   -0.83185E-05  2448   0.252E-02    0.278E-02
DAV:   6    -0.540564893479E+03    0.26431E-06   -0.29979E-05  2448   0.178E-02    0.129E-02
DAV:   7    -0.540564894715E+03   -0.12355E-05   -0.82983E-06  2256   0.687E-03    0.827E-03
DAV:   8    -0.540564895268E+03   -0.55355E-06   -0.24141E-06  1632   0.390E-03
 292 F= -.54056490E+03 E0= -.54056490E+03  d E =-.457977E-03  mag=     5.0000
 curvature:  -0.84 expect dE=-0.670E-03 dE for cont linesearch -0.260E-06
 trial: gam= 0.57303 g(F)=  0.795E-03 g(S)=  0.000E+00 ort = 0.603E-04 (trialstep = 0.320E+00)
 search vector abs. value=  0.473E-02
 bond charge predicted
       N       E                     dE             d eps       ncg     rms          rms(c)
DAV:   1    -0.540564799690E+03    0.95025E-04   -0.12390E-01  1536   0.549E-01    0.961E-02
DAV:   2    -0.540565085792E+03   -0.28610E-03   -0.31041E-03  1968   0.112E-01    0.981E-02
DAV:   3    -0.540565099899E+03   -0.14107E-04   -0.15516E-04  2448   0.255E-02    0.758E-02
DAV:   4    -0.540565098560E+03    0.13391E-05   -0.62183E-05  2448   0.183E-02    0.517E-02
DAV:   5    -0.540565101963E+03   -0.34022E-05   -0.58356E-05  2352   0.209E-02    0.201E-02
DAV:   6    -0.540565100960E+03    0.10029E-05   -0.19895E-05  2400   0.134E-02    0.105E-02
DAV:   7    -0.540565101395E+03   -0.43509E-06   -0.38531E-06  1968   0.452E-03
 293 F= -.54056510E+03 E0= -.54056510E+03  d E =-.206126E-03  mag=     5.0000
 trial-energy change:   -0.000206  1 .order   -0.000207   -0.000265   -0.000149
 step:   0.7308(harm=  0.7308)  dis= 0.00386  next Energy=  -540.565199 (dE=-0.303E-03)
 bond charge predicted
       N       E                     dE             d eps       ncg     rms          rms(c)
DAV:   1    -0.540564695499E+03    0.40546E-03   -0.20546E-01  1536   0.707E-01    0.124E-01
DAV:   2    -0.540565177430E+03   -0.48193E-03   -0.51953E-03  1968   0.145E-01    0.129E-01
DAV:   3    -0.540565203932E+03   -0.26502E-04   -0.28628E-04  2496   0.342E-02    0.978E-02
DAV:   4    -0.540565202301E+03    0.16308E-05   -0.11817E-04  2544   0.242E-02    0.699E-02
DAV:   5    -0.540565204961E+03   -0.26597E-05   -0.83754E-05  2400   0.257E-02    0.252E-02
DAV:   6    -0.540565204115E+03    0.84551E-06   -0.26983E-05  2400   0.170E-02    0.158E-02
DAV:   7    -0.540565204729E+03   -0.61432E-06   -0.81374E-06  2208   0.641E-03
 294 F= -.54056520E+03 E0= -.54056520E+03  d E =-.309461E-03  mag=     5.0000
 curvature:  -2.08 expect dE=-0.226E-02 dE for cont linesearch -0.213E-06
 trial: gam= 1.36125 g(F)=  0.109E-02 g(S)=  0.000E+00 ort = 0.220E-04 (trialstep = 0.192E+00)
 search vector abs. value=  0.991E-02
 bond charge predicted
       N       E                     dE             d eps       ncg     rms          rms(c)
DAV:   1    -0.540565147072E+03    0.57044E-04   -0.93409E-02  1536   0.484E-01    0.707E-02
DAV:   2    -0.540565368992E+03   -0.22192E-03   -0.24586E-03  2016   0.104E-01    0.665E-02
DAV:   3    -0.540565384103E+03   -0.15111E-04   -0.16354E-04  2688   0.258E-02    0.444E-02
DAV:   4    -0.540565383701E+03    0.40148E-06   -0.44603E-05  2544   0.139E-02    0.357E-02
DAV:   5    -0.540565385029E+03   -0.13279E-05   -0.26177E-05  2448   0.144E-02    0.154E-02
DAV:   6    -0.540565385317E+03   -0.28827E-06   -0.99688E-06  2400   0.105E-02
 295 F= -.54056539E+03 E0= -.54056539E+03  d E =-.180588E-03  mag=     5.0000
 trial-energy change:   -0.000181  1 .order   -0.000181   -0.000214   -0.000147
 step:   0.6159(harm=  0.6159)  dis= 0.00589  next Energy=  -540.565548 (dE=-0.343E-03)
 bond charge predicted
       N       E                     dE             d eps       ncg     rms          rms(c)
DAV:   1    -0.540564394130E+03    0.99090E-03   -0.45587E-01  1536   0.107E+00    0.156E-01
DAV:   2    -0.540565484670E+03   -0.10905E-02   -0.11844E-02  2016   0.228E-01    0.146E-01
DAV:   3    -0.540565544990E+03   -0.60320E-04   -0.77316E-04  2688   0.566E-02    0.971E-02
DAV:   4    -0.540565538503E+03    0.64874E-05   -0.20125E-04  2496   0.300E-02    0.772E-02
DAV:   5    -0.540565538561E+03   -0.58630E-07   -0.11736E-04  2496   0.323E-02    0.346E-02
DAV:   6    -0.540565537252E+03    0.13089E-05   -0.44713E-05  2400   0.233E-02    0.186E-02
DAV:   7    -0.540565538173E+03   -0.92066E-06   -0.11382E-05  2352   0.862E-03    0.109E-02
DAV:   8    -0.540565539917E+03   -0.17434E-05   -0.34887E-06  1776   0.471E-03    0.744E-03
DAV:   9    -0.540565542973E+03   -0.30568E-05   -0.31261E-06  1536   0.370E-03    0.461E-03
DAV:  10    -0.540565545627E+03   -0.26535E-05   -0.27082E-06  1344   0.297E-03    0.268E-03
DAV:  11    -0.540565547146E+03   -0.15188E-05   -0.12171E-06  1152   0.229E-03    0.195E-03
DAV:  12    -0.540565548233E+03   -0.10871E-05   -0.74254E-07  1104   0.176E-03    0.163E-03
DAV:  13    -0.540565549576E+03   -0.13435E-05   -0.11171E-06  1152   0.165E-03    0.150E-03
DAV:  14    -0.540565550444E+03   -0.86817E-06   -0.62684E-07  1104   0.135E-03
 296 F= -.54056555E+03 E0= -.54056555E+03  d E =-.345715E-03  mag=     5.0000
 curvature:  -2.74 expect dE=-0.166E-02 dE for cont linesearch -0.415E-07
 trial: gam= 0.61145 g(F)=  0.606E-03 g(S)=  0.000E+00 ort =-0.123E-04 (trialstep = 0.277E+00)
 search vector abs. value=  0.430E-02
 bond charge predicted
       N       E                     dE             d eps       ncg     rms          rms(c)
DAV:   1    -0.540565475143E+03    0.74433E-04   -0.84819E-02  1536   0.451E-01    0.716E-02
DAV:   2    -0.540565667851E+03   -0.19271E-03   -0.21179E-03  1872   0.909E-02    0.775E-02
DAV:   3    -0.540565678981E+03   -0.11130E-04   -0.10736E-04  2352   0.201E-02    0.599E-02
DAV:   4    -0.540565676440E+03    0.25411E-05   -0.40064E-05  2592   0.145E-02    0.410E-02
DAV:   5    -0.540565679509E+03   -0.30691E-05   -0.29235E-05  2304   0.137E-02    0.159E-02
DAV:   6    -0.540565680680E+03   -0.11706E-05   -0.10664E-05  2400   0.870E-03    0.104E-02
DAV:   7    -0.540565681416E+03   -0.73569E-06   -0.19191E-06  1584   0.380E-03
 297 F= -.54056568E+03 E0= -.54056568E+03  d E =-.130971E-03  mag=     5.0000
 trial-energy change:   -0.000131  1 .order   -0.000129   -0.000165   -0.000093
 step:   0.6352(harm=  0.6352)  dis= 0.00388  next Energy=  -540.565740 (dE=-0.190E-03)
 bond charge predicted
       N       E                     dE             d eps       ncg     rms          rms(c)
DAV:   1    -0.540565395163E+03    0.28552E-03   -0.14268E-01  1536   0.585E-01    0.935E-02
DAV:   2    -0.540565725969E+03   -0.33081E-03   -0.36130E-03  1872   0.118E-01    0.101E-01
DAV:   3    -0.540565743048E+03   -0.17078E-04   -0.16911E-04  2304   0.250E-02    0.780E-02
DAV:   4    -0.540565739704E+03    0.33440E-05   -0.73306E-05  2544   0.197E-02    0.528E-02
DAV:   5    -0.540565743549E+03   -0.38451E-05   -0.46925E-05  2400   0.178E-02    0.204E-02
DAV:   6    -0.540565745109E+03   -0.15601E-05   -0.15818E-05  2400   0.107E-02    0.131E-02
DAV:   7    -0.540565746175E+03   -0.10664E-05   -0.34908E-06  1968   0.502E-03    0.765E-03
DAV:   8    -0.540565748507E+03   -0.23322E-05   -0.16616E-06  1152   0.310E-03    0.609E-03
DAV:   9    -0.540565751177E+03   -0.26694E-05   -0.22292E-06  1296   0.259E-03    0.364E-03
DAV:  10    -0.540565753660E+03   -0.24836E-05   -0.22539E-06  1104   0.247E-03    0.208E-03
DAV:  11    -0.540565755277E+03   -0.16164E-05   -0.14902E-06  1152   0.209E-03    0.176E-03
DAV:  12    -0.540565756104E+03   -0.82690E-06   -0.65317E-07  1104   0.161E-03
 298 F= -.54056576E+03 E0= -.54056576E+03  d E =-.205659E-03  mag=     5.0000
 curvature:  -2.28 expect dE=-0.134E-02 dE for cont linesearch -0.395E-07
 trial: gam= 0.91050 g(F)=  0.589E-03 g(S)=  0.000E+00 ort = 0.863E-05 (trialstep = 0.348E+00)
 search vector abs. value=  0.417E-02
 bond charge predicted
       N       E                     dE             d eps       ncg     rms          rms(c)
DAV:   1    -0.540565605081E+03    0.15020E-03   -0.12903E-01  1536   0.561E-01    0.859E-02
DAV:   2    -0.540565910241E+03   -0.30516E-03   -0.33079E-03  2064   0.119E-01    0.865E-02
DAV:   3    -0.540565925826E+03   -0.15586E-04   -0.18718E-04  2544   0.272E-02    0.629E-02
DAV:   4    -0.540565924218E+03    0.16087E-05   -0.64033E-05  2688   0.171E-02    0.469E-02
DAV:   5    -0.540565924859E+03   -0.64121E-06   -0.50801E-05  2448   0.196E-02    0.208E-02
DAV:   6    -0.540565924404E+03    0.45510E-06   -0.19382E-05  2544   0.136E-02    0.111E-02
DAV:   7    -0.540565925158E+03   -0.75387E-06   -0.37484E-06  1776   0.495E-03
 299 F= -.54056593E+03 E0= -.54056593E+03  d E =-.169054E-03  mag=     5.0000
 trial-energy change:   -0.000169  1 .order   -0.000166   -0.000208   -0.000123
 step:   0.8569(harm=  0.8569)  dis= 0.00584  next Energy=  -540.566012 (dE=-0.256E-03)
 bond charge predicted
       N       E                     dE             d eps       ncg     rms          rms(c)
DAV:   1    -0.540565330645E+03    0.59376E-03   -0.27511E-01  1536   0.819E-01    0.127E-01
DAV:   2    -0.540565989000E+03   -0.65835E-03   -0.71001E-03  2064   0.173E-01    0.126E-01
DAV:   3    -0.540566020925E+03   -0.31925E-04   -0.40078E-04  2544   0.396E-02    0.913E-02
DAV:   4    -0.540566017031E+03    0.38939E-05   -0.13654E-04  2688   0.249E-02    0.679E-02
DAV:   5    -0.540566017693E+03   -0.66181E-06   -0.10063E-04  2448   0.285E-02    0.300E-02
DAV:   6    -0.540566015931E+03    0.17612E-05   -0.38165E-05  2544   0.199E-02    0.158E-02
DAV:   7    -0.540566017497E+03   -0.15657E-05   -0.85987E-06  2304   0.710E-03    0.105E-02
DAV:   8    -0.540566018767E+03   -0.12702E-05   -0.19873E-06  1584   0.404E-03    0.679E-03
DAV:   9    -0.540566021076E+03   -0.23086E-05   -0.28975E-06  1440   0.336E-03    0.487E-03
DAV:  10    -0.540566023410E+03   -0.23337E-05   -0.31360E-06  1296   0.295E-03    0.218E-03
DAV:  11    -0.540566024427E+03   -0.10175E-05   -0.10077E-06  1200   0.220E-03    0.191E-03
DAV:  12    -0.540566025129E+03   -0.70225E-06   -0.69517E-07  1104   0.165E-03
 300 F= -.54056603E+03 E0= -.54056603E+03  d E =-.269026E-03  mag=     5.0000
 curvature:  -2.99 expect dE=-0.111E-02 dE for cont linesearch -0.605E-08
 trial: gam= 0.70477 g(F)=  0.370E-03 g(S)=  0.000E+00 ort =-0.290E-05 (trialstep = 0.450E+00)
 search vector abs. value=  0.244E-02
