unknown system                          
           1
    11.598200    0.000000    0.000000
    -5.799100   10.044336    0.000000
     0.000000    0.000000   21.048201
   Ce   O    Ir
    18    48     7
Direct configuration=     1
   0.00355000  0.99614000  0.45681000
   0.22222000  0.11111000  0.30996000
   0.32535000  0.99764000  0.46049000
   0.55556000  0.11111000  0.30996000
   0.66944000  0.00531000  0.46128000
   0.88889000  0.11111000  0.30996000
   0.99424000  0.33045000  0.46165000
   0.22222000  0.44444000  0.30996000
   0.34031000  0.34358000  0.46228000
   0.55556000  0.44444000  0.30996000
   0.67098000  0.32944000  0.45664000
   0.88889000  0.44444000  0.30996000
   0.00519000  0.67621000  0.45924000
   0.22222000  0.77778000  0.30996000
   0.33328000  0.66703000  0.45847000
   0.55556000  0.77778000  0.30996000
   0.65704000  0.65973000  0.46251000
   0.88889000  0.77778000  0.30996000
   0.01036000  0.99416000  0.58698000
   0.11111000  0.22222000  0.27247000
   0.22658000  0.11867000  0.42170000
   0.10952000  0.21810000  0.50284000
   0.00000000  0.00000000  0.34745000
   0.33679000  0.03234000  0.58178000
   0.44444000  0.22222000  0.27247000
   0.55234000  0.10748000  0.42117000
   0.44843000  0.21994000  0.49838000
   0.33333000  0.00000000  0.34745000
   0.63907000  0.97476000  0.58229000
   0.77778000  0.22222000  0.27247000
   0.89111000  0.10888000  0.42284000
   0.77710000  0.22213000  0.49045000
   0.66667000  0.00000000  0.34745000
   0.02319000  0.35952000  0.58092000
   0.11111000  0.55556000  0.27247000
   0.21300000  0.43127000  0.42216000
   0.10507000  0.55962000  0.50211000
   0.00000000  0.33333000  0.34745000
   0.31096000  0.34571000  0.59083000
   0.44444000  0.55556000  0.27247000
   0.55607000  0.44417000  0.41837000
   0.44186000  0.54615000  0.51936000
   0.33333000  0.33333000  0.34745000
   0.66479000  0.33801000  0.59004000
   0.77778000  0.55556000  0.27247000
   0.89287000  0.44679000  0.42076000
   0.78297000  0.55197000  0.49808000
   0.66667000  0.33333000  0.34745000
   0.96889000  0.66204000  0.58342000
   0.11111000  0.88889000  0.27247000
   0.22005000  0.78147000  0.42007000
   0.11006000  0.89029000  0.48937000
   0.00000000  0.66667000  0.34745000
   0.30006000  0.70033000  0.59351000
   0.44444000  0.88889000  0.27247000
   0.56880000  0.78642000  0.42250000
   0.44021000  0.89483000  0.50291000
   0.33333000  0.66667000  0.34745000
   0.65711000  0.69276000  0.58792000
   0.77778000  0.88889000  0.27247000
   0.88146000  0.77372000  0.42160000
   0.78251000  0.89105000  0.50266000
   0.66667000  0.66667000  0.34745000
   0.34134000  0.52208000  0.61020000
   0.61871000  0.48333000  0.60482000
   0.53267000  0.48676000  0.67821000
   0.49326000  0.50796000  0.59914000
   0.15674000  0.17333000  0.58472000
   0.49459000  0.18326000  0.58240000
   0.81823000  0.50554000  0.58234000
   0.83184000  0.84789000  0.58500000
   0.47030000  0.84261000  0.58700000
   0.15366000  0.53050000  0.58694000
Direct configuration=     2
   0.00224889  0.99506700  0.45648219
   0.22355531  0.11232044  0.30914268
   0.32479584  0.99747360  0.46025947
   0.55493832  0.10984878  0.30907115
   0.66975888  0.00439491  0.46171484
   0.88826361  0.11111479  0.30941572
   0.99359182  0.32999029  0.46238628
   0.22189885  0.44363215  0.30931536
   0.33554147  0.33850730  0.46053896
   0.55591454  0.44644523  0.30863890
   0.67278284  0.32911886  0.45567051
   0.88989135  0.44508974  0.30906957
   0.00262923  0.67549782  0.45919518
   0.22224404  0.77802946  0.30878254
   0.33430433  0.66719060  0.45888821
   0.55744383  0.77769005  0.31004837
   0.66253002  0.66476762  0.46196372
   0.88600217  0.77572549  0.30975350
   0.00898776  0.99446546  0.58844452
   0.11097337  0.22204226  0.27239543
   0.22725065  0.11931415  0.42195719
   0.11003041  0.21874349  0.50273100
   0.00083764  0.99999962  0.34808653
   0.33590028  0.03114937  0.58184196
   0.44431494  0.22179713  0.27243926
   0.55189927  0.10715327  0.42117779
   0.45029984  0.22499030  0.49890813
   0.33277120  0.00031313  0.34812638
   0.64082059  0.97576992  0.58224011
   0.77771907  0.22219988  0.27243523
   0.89127481  0.10901733  0.42279298
   0.77734421  0.22193939  0.49049725
   0.66754572  0.00154432  0.34812161
   0.02105407  0.35699855  0.58051676
   0.11121285  0.55550498  0.27243798
   0.21676703  0.43445691  0.42315537
   0.10453426  0.56077450  0.50107706
   0.99908878  0.33257724  0.34810674
   0.30621341  0.33293173  0.58920055
   0.44363118  0.55536871  0.27239258
   0.55277569  0.44017270  0.42040971
   0.44332376  0.54662193  0.50679009
   0.33358070  0.33430798  0.34844014
   0.66283760  0.32510013  0.58806878
   0.77814668  0.55520534  0.27238719
   0.89297735  0.44683313  0.42067595
   0.78019392  0.54892114  0.49817070
   0.66724203  0.33261840  0.34828651
   0.97203425  0.66500639  0.58369634
   0.11132009  0.88920077  0.27246151
   0.22184828  0.78036360  0.42061994
   0.11081600  0.89052897  0.48942213
   0.00021649  0.66712015  0.34795965
   0.30060778  0.70461988  0.59400399
   0.44431480  0.88898364  0.27243274
   0.56371589  0.78636772  0.42260722
   0.43949695  0.89307517  0.50286664
   0.33331572  0.66590240  0.34799855
   0.66216343  0.70246383  0.58770488
   0.77828788  0.88967183  0.27233826
   0.88562854  0.77564169  0.42114813
   0.78556755  0.89454137  0.50373514
   0.66561669  0.66604037  0.34619947
   0.32518421  0.52616870  0.61873542
   0.66441838  0.47238085  0.60651208
   0.53084524  0.48380473  0.69226963
   0.45302219  0.52339649  0.59128337
   0.15554784  0.17067391  0.58526372
   0.49632328  0.18463962  0.58302997
   0.82103915  0.50816417  0.58223049
   0.83083320  0.84789454  0.58399360
   0.46889192  0.84415278  0.58600938
   0.16100986  0.52982992  0.58690910
Direct configuration=     3
   0.00297334  0.99566444  0.45666472
   0.22281181  0.11164647  0.30959776
   0.32510439  0.99756625  0.46038783
   0.55528447  0.11055102  0.30956606
   0.66958133  0.00490443  0.46147272
   0.88861238  0.11111213  0.30971878
   0.99395273  0.33024625  0.46197632
   0.22207766  0.44408196  0.30967429
   0.33819658  0.34133177  0.46150837
   0.55571713  0.44532872  0.30937449
   0.67177902  0.32929767  0.45621032
   0.88933380  0.44472797  0.30956536
   0.00405506  0.67589436  0.45922014
   0.22223066  0.77789056  0.30943815
   0.33373399  0.66710118  0.45865535
   0.55639492  0.77774013  0.30999917
   0.65947319  0.66196268  0.46226789
   0.88761011  0.77686944  0.30986848
   0.00975182  0.99429538  0.58762908
   0.11104945  0.22214123  0.27243695
   0.22687723  0.11895549  0.42181399
   0.10974621  0.21838520  0.50279169
   0.00037124  0.99999983  0.34773211
   0.33639567  0.03181231  0.58180746
   0.44438457  0.22203258  0.27245638
   0.55214467  0.10733519  0.42117345
   0.44925872  0.22217830  0.49861407
   0.33308234  0.00013878  0.34774977
   0.63984586  0.97520760  0.58226789
   0.77775299  0.22221108  0.27245459
   0.89118304  0.10894086  0.42281916
   0.77720823  0.22204552  0.49047094
   0.66705812  0.00068444  0.34774766
   0.02224335  0.35840249  0.58074128
   0.11115559  0.55553562  0.27245581
   0.21466955  0.43268244  0.42260115
   0.10483256  0.56013168  0.50165220
   0.99959614  0.33299638  0.34774107
   0.30885630  0.34004665  0.59010783
   0.44408153  0.55547522  0.27243569
   0.55460996  0.44239839  0.41927400
   0.44250874  0.54635916  0.51378900
   0.33344111  0.33376344  0.34788883
   0.66392469  0.33228832  0.58916635
   0.77794251  0.55540281  0.27243330
   0.89291758  0.44680911  0.42072275
   0.78173963  0.55061874  0.49812020
   0.66692353  0.33301462  0.34782074
   0.97028354  0.66335471  0.58354247
   0.11120311  0.88902773  0.27246624
   0.22084700  0.78097964  0.42031373
   0.11039506  0.89039591  0.48939310
   0.00009595  0.66686951  0.34767588
   0.30030278  0.70223128  0.59372894
   0.44438451  0.88893150  0.27245349
   0.56654671  0.78639683  0.42254752
   0.43989397  0.89405226  0.50289078
   0.33332367  0.66632980  0.34769312
   0.65934969  0.69706075  0.58782466
   0.77800509  0.88923651  0.27241161
   0.88330750  0.77457170  0.42139973
   0.78386511  0.89259738  0.50313651
   0.66620317  0.66639095  0.34689576
   0.33417973  0.52389212  0.61398291
   0.63896804  0.47847732  0.60556994
   0.53186126  0.48545022  0.68444125
   0.47542653  0.51480148  0.59565793
   0.15621163  0.17215282  0.58496098
   0.49535819  0.18387145  0.58267921
   0.81947502  0.50670304  0.58229146
   0.83139379  0.84789201  0.58455396
   0.46967594  0.84329377  0.58656096
   0.15691747  0.53020302  0.58692631
Direct configuration=     4
   0.00215903  0.99436389  0.45614132
   0.22423065  0.11272692  0.30876774
   0.32475426  0.99730439  0.46021862
   0.55451536  0.10901555  0.30880545
   0.66949300  0.00420463  0.46180453
   0.88802293  0.11136118  0.30924305
   0.99324637  0.33030305  0.46263615
   0.22174993  0.44358599  0.30926197
   0.33379106  0.33482129  0.45907170
   0.55584958  0.44708800  0.30839263
   0.67309129  0.32903348  0.45515783
   0.89067805  0.44537697  0.30876413
   0.00221679  0.67547686  0.45910405
   0.22243142  0.77809693  0.30856856
   0.33455028  0.66738153  0.45893072
   0.55774449  0.77770773  0.31029409
   0.66597041  0.66688092  0.46158804
   0.88515959  0.77493362  0.30958041
   0.00824662  0.99650977  0.58891689
   0.11093247  0.22188866  0.27229756
   0.22738125  0.11959982  0.42203208
   0.10964949  0.21759682  0.50338415
   0.00127196  0.99995280  0.34842786
   0.33735941  0.03265921  0.58200699
   0.44425144  0.22172733  0.27234804
   0.55164965  0.10674926  0.42114250
   0.45140474  0.22770439  0.49942934
   0.33241295  0.00063261  0.34842008
   0.64005734  0.97483772  0.58229444
   0.77772667  0.22217377  0.27231241
   0.89140750  0.10889056  0.42281440
   0.77760947  0.22156908  0.49054807
   0.66826061  0.00248023  0.34849574
   0.02079198  0.35771449  0.58028466
   0.11107223  0.55533784  0.27231862
   0.21812069  0.43499736  0.42359509
   0.10410723  0.56054073  0.50154000
   0.99853472  0.33204547  0.34849578
   0.30365011  0.32293043  0.58844869
   0.44333978  0.55510253  0.27223003
   0.55087874  0.43819685  0.42124985
   0.44151931  0.54853792  0.49871986
   0.33375486  0.33483315  0.34885821
   0.65964098  0.31339656  0.58686022
   0.77824893  0.55500197  0.27225829
   0.89320369  0.44689136  0.42054269
   0.77979776  0.54777977  0.49786216
   0.66763650  0.33234214  0.34851856
   0.97510447  0.66577605  0.58362222
   0.11137057  0.88942345  0.27240916
   0.22232086  0.78020463  0.42069637
   0.11104475  0.89081512  0.48945538
   0.00011493  0.66731461  0.34813719
   0.30145057  0.70937570  0.59409790
   0.44440919  0.88921990  0.27235637
   0.56188907  0.78687512  0.42254055
   0.43958788  0.89326577  0.50266029
   0.33338996  0.66539275  0.34756643
   0.66185800  0.70420321  0.58802485
   0.77862254  0.89010604  0.27224077
   0.88785311  0.77688467  0.42073575
   0.78823464  0.89752836  0.50436886
   0.66513307  0.66565437  0.34545862
   0.30774964  0.53398653  0.62445816
   0.65751697  0.47824473  0.60783666
   0.52598889  0.48648423  0.68638123
   0.48083077  0.51747137  0.60284775
   0.15468161  0.16865209  0.58426030
   0.49537910  0.18174309  0.58287180
   0.81807432  0.51182255  0.58261028
   0.82942379  0.84672306  0.58378982
   0.47033189  0.84741194  0.58579699
   0.16601579  0.52650714  0.58587202
Direct configuration=     5
   0.00236722  0.99469639  0.45627513
   0.22386791  0.11245069  0.30897995
   0.32484378  0.99737134  0.46026188
   0.55471199  0.10940811  0.30899991
   0.66951558  0.00438354  0.46171970
   0.88817363  0.11129750  0.30936467
   0.99342696  0.33028853  0.46246746
   0.22183372  0.44371279  0.30936739
   0.33491738  0.33648577  0.45969466
   0.55581572  0.44663822  0.30864366
   0.67275579  0.32910102  0.45542691
   0.89033438  0.44521104  0.30896897
   0.00268677  0.67558360  0.45913373
   0.22238009  0.77804417  0.30879088
   0.33434159  0.66730986  0.45886032
   0.55739946  0.77771602  0.31021869
   0.66430933  0.66562352  0.46176185
   0.88578609  0.77542853  0.30965406
   0.00863144  0.99594364  0.58858764
   0.11096237  0.22195323  0.27233320
   0.22725240  0.11943509  0.42197632
   0.10967422  0.21779838  0.50323268
   0.00104168  0.99996482  0.34824999
   0.33711302  0.03244269  0.58195598
   0.44428547  0.22180537  0.27237574
   0.55177620  0.10689906  0.42115042
   0.45085609  0.22629159  0.49922091
   0.33258408  0.00050636  0.34824871
   0.64000328  0.97493228  0.58228766
   0.77773340  0.22218331  0.27234876
   0.89135011  0.10890342  0.42281562
   0.77750689  0.22169089  0.49052835
   0.66795318  0.00202112  0.34830448
   0.02116304  0.35789038  0.58040140
   0.11109354  0.55538840  0.27235369
   0.21723837  0.43440553  0.42334098
   0.10429267  0.56043615  0.50156868
   0.99880609  0.33228858  0.34830283
   0.30498113  0.32730638  0.58887287
   0.44352942  0.55519781  0.27228261
   0.55183267  0.43927102  0.42074470
   0.44177227  0.54798090  0.50257245
   0.33367465  0.33455967  0.34861038
   0.66073615  0.31822644  0.58744981
   0.77817059  0.55510445  0.27230303
   0.89313054  0.44687033  0.42058872
   0.78029422  0.54850558  0.49792813
   0.66745422  0.33251407  0.34834016
   0.97387195  0.66515701  0.58360184
   0.11132775  0.88932228  0.27242375
   0.22194405  0.78040277  0.42059854
   0.11087865  0.89070794  0.48943946
   0.00011008  0.66720081  0.34801925
   0.30115713  0.70754915  0.59400357
   0.44440288  0.88914617  0.27238120
   0.56307984  0.78675284  0.42254233
   0.43966614  0.89346685  0.50271922
   0.33337301  0.66563232  0.34759882
   0.66121672  0.70237716  0.58797367
   0.77846468  0.88988374  0.27228445
   0.88669097  0.77629334  0.42090550
   0.78711753  0.89626770  0.50405380
   0.66540666  0.66584269  0.34582604
   0.31450678  0.53140579  0.62178005
   0.65277473  0.47830419  0.60725715
   0.52749022  0.48621987  0.68588526
   0.47944912  0.51678878  0.60100959
   0.15507278  0.16954709  0.58443943
   0.49537376  0.18228723  0.58282256
   0.81843242  0.51051369  0.58252877
   0.82992744  0.84702191  0.58398518
   0.47016419  0.84635908  0.58599230
   0.16368971  0.52745203  0.58614156
Direct configuration=     6
   0.00288506  0.99532622  0.45638757
   0.22399787  0.11244557  0.30884533
   0.32458537  0.99735462  0.46006653
   0.55455982  0.10894865  0.30907961
   0.67001265  0.00455148  0.46120638
   0.88830899  0.11175636  0.30958850
   0.99439342  0.33078127  0.46248171
   0.22176436  0.44391228  0.30998850
   0.33502307  0.33700511  0.45919562
   0.55519357  0.44621166  0.30921611
   0.67218334  0.32910492  0.45485727
   0.89095508  0.44505302  0.30899236
   0.00443078  0.67624637  0.45896148
   0.22258564  0.77806232  0.30910565
   0.33437148  0.66576846  0.45868729
   0.55671335  0.77786429  0.31069696
   0.66401031  0.66551196  0.46169953
   0.88643186  0.77569427  0.30933749
   0.00439753  0.99503190  0.58906500
   0.11104102  0.22189781  0.27216772
   0.22704298  0.11863863  0.42168154
   0.10839022  0.21659827  0.50345492
   0.00134211  0.99985760  0.34820241
   0.33652820  0.03191991  0.58236598
   0.44427009  0.22189900  0.27219080
   0.55135515  0.10625722  0.42114039
   0.45183326  0.22735902  0.50023248
   0.33227118  0.00077621  0.34833698
   0.64000927  0.97394486  0.58243610
   0.77773793  0.22216199  0.27207087
   0.89130641  0.10876571  0.42269984
   0.77760371  0.22112539  0.49068933
   0.66859119  0.00275079  0.34846858
   0.02273846  0.36121070  0.57990512
   0.11077817  0.55519513  0.27212205
   0.21647092  0.43405418  0.42319164
   0.10381724  0.55969405  0.50262766
   0.99840269  0.33192509  0.34848665
   0.31140427  0.33085337  0.58782952
   0.44348182  0.55485826  0.27196999
   0.55179987  0.43779562  0.42059752
   0.44188405  0.54619825  0.50370630
   0.33371447  0.33475086  0.34823464
   0.66389216  0.31162426  0.58734272
   0.77816433  0.55495395  0.27208076
   0.89342362  0.44714252  0.42036417
   0.78015968  0.54762291  0.49737397
   0.66786830  0.33239056  0.34809562
   0.97464860  0.66316556  0.58339391
   0.11138661  0.88943177  0.27228427
   0.22193245  0.78080830  0.42038444
   0.11124186  0.89071360  0.48947178
   0.99990268  0.66729475  0.34796741
   0.30164347  0.71462412  0.59258221
   0.44458287  0.88950902  0.27225620
   0.56291809  0.78828118  0.42222225
   0.44013953  0.89454159  0.50228169
   0.33341920  0.66522044  0.34674913
   0.65750192  0.70136132  0.58830694
   0.77863528  0.89009927  0.27218046
   0.88827198  0.77694080  0.42023816
   0.78865833  0.89998119  0.50320026
   0.66528744  0.66562668  0.34526460
   0.30982273  0.52896731  0.62482879
   0.64781054  0.48234233  0.61007041
   0.52175971  0.48867415  0.68142216
   0.48316861  0.51483342  0.60529869
   0.14982487  0.16217216  0.58418762
   0.49010341  0.17644691  0.58127509
   0.82127119  0.51704553  0.58235370
   0.83503504  0.85000336  0.58507083
   0.47020314  0.84968575  0.58685257
   0.16865413  0.52274667  0.58641125
Direct configuration=     7
   0.00278942  0.99520990  0.45636681
   0.22397386  0.11244651  0.30887019
   0.32463309  0.99735770  0.46010261
   0.55458792  0.10903350  0.30906489
   0.66992085  0.00452046  0.46130118
   0.88828399  0.11167162  0.30954716
   0.99421493  0.33069027  0.46247908
   0.22177717  0.44387544  0.30987379
   0.33500355  0.33690919  0.45928779
   0.55530847  0.44629044  0.30911039
   0.67228907  0.32910420  0.45496247
   0.89084045  0.44508221  0.30898804
   0.00410869  0.67612397  0.45899330
   0.22254768  0.77805897  0.30904752
   0.33436596  0.66605313  0.45871925
   0.55684006  0.77783691  0.31060863
   0.66406554  0.66553256  0.46171104
   0.88631260  0.77564519  0.30939596
   0.00517946  0.99520028  0.58897684
   0.11102649  0.22190804  0.27219828
   0.22708166  0.11878572  0.42173598
   0.10862735  0.21681991  0.50341387
   0.00128663  0.99987740  0.34821120
   0.33663621  0.03201646  0.58229026
   0.44427293  0.22188171  0.27222496
   0.55143291  0.10637576  0.42114225
   0.45165279  0.22716189  0.50004566
   0.33232896  0.00072637  0.34832068
   0.64000816  0.97412722  0.58240868
   0.77773709  0.22216593  0.27212219
   0.89131448  0.10879114  0.42272123
   0.77758583  0.22122983  0.49065960
   0.66847336  0.00261603  0.34843827
   0.02244751  0.36059750  0.57999677
   0.11083642  0.55523082  0.27216483
   0.21661265  0.43411907  0.42321922
   0.10390505  0.55983110  0.50243208
   0.99847719  0.33199222  0.34845270
   0.31021803  0.33019830  0.58802220
   0.44349061  0.55492097  0.27202773
   0.55180593  0.43806810  0.42062470
   0.44186341  0.54652747  0.50349690
   0.33370711  0.33471555  0.34830403
   0.66330931  0.31284357  0.58736250
   0.77816549  0.55498175  0.27212181
   0.89336949  0.44709225  0.42040564
   0.78018453  0.54778592  0.49747631
   0.66779183  0.33241337  0.34814078
   0.97450517  0.66353334  0.58343231
   0.11137574  0.88941155  0.27231003
   0.22193459  0.78073340  0.42042398
   0.11117478  0.89071255  0.48946581
   0.99994098  0.66727740  0.34797699
   0.30155365  0.71331750  0.59284471
   0.44454963  0.88944201  0.27227929
   0.56294797  0.78799892  0.42228136
   0.44005211  0.89434310  0.50236249
   0.33341067  0.66529650  0.34690605
   0.65818797  0.70154893  0.58824539
   0.77860377  0.89005947  0.27219967
   0.88798000  0.77682122  0.42036141
   0.78837377  0.89929537  0.50335790
   0.66530945  0.66566658  0.34536829
   0.31068779  0.52941765  0.62426574
   0.64872734  0.48159656  0.60955085
   0.52281803  0.48822089  0.68224642
   0.48248169  0.51519454  0.60450657
   0.15079406  0.16353417  0.58423413
   0.49107675  0.17752551  0.58156088
   0.82074692  0.51583922  0.58238603
   0.83409176  0.84945274  0.58487033
   0.47019595  0.84907137  0.58669370
   0.16773729  0.52361566  0.58636144
Direct configuration=     8
   0.00318218  0.99635831  0.45622702
   0.22376514  0.11230282  0.30861619
   0.32436218  0.99725950  0.45928370
   0.55465350  0.10884635  0.30910073
   0.67108470  0.00527688  0.46056838
   0.88859309  0.11201444  0.30977685
   0.99508097  0.33096818  0.46241746
   0.22167514  0.44391509  0.31035116
   0.33516237  0.33828526  0.45968343
   0.55481772  0.44585416  0.30958050
   0.67204887  0.32892577  0.45452827
   0.89128855  0.44488733  0.30894893
   0.00631675  0.67647091  0.45836091
   0.22251894  0.77806032  0.30928899
   0.33435167  0.66399983  0.45878286
   0.55633212  0.77799873  0.31091365
   0.66310277  0.66537589  0.46194941
   0.88714437  0.77611373  0.30890193
   0.00050490  0.99343864  0.59021111
   0.11117387  0.22193466  0.27204544
   0.22708908  0.11785150  0.42137936
   0.10707533  0.21548440  0.50349949
   0.00171777  0.99989587  0.34809094
   0.33060579  0.02667438  0.58309030
   0.44422817  0.22189760  0.27203604
   0.55069161  0.10572694  0.42111364
   0.45244208  0.22852960  0.50062675
   0.33202760  0.00093016  0.34842940
   0.64121183  0.97336962  0.58276936
   0.77772196  0.22209518  0.27177339
   0.89142073  0.10887541  0.42243074
   0.77774924  0.22067683  0.49072093
   0.66909102  0.00345574  0.34854110
   0.02329821  0.36303555  0.57938844
   0.11047488  0.55505745  0.27193062
   0.21541908  0.43366531  0.42287496
   0.10391520  0.55901380  0.50405976
   0.99814607  0.33168799  0.34863409
   0.31400975  0.33017604  0.58607506
   0.44337618  0.55448802  0.27171857
   0.55219172  0.43652962  0.42030534
   0.44235717  0.54404369  0.50597637
   0.33366999  0.33487771  0.34779302
   0.66394904  0.30576376  0.58695470
   0.77821905  0.55477867  0.27189463
   0.89379900  0.44751810  0.42018099
   0.78007910  0.54699968  0.49656988
   0.66820103  0.33212673  0.34778306
   0.97979609  0.66508149  0.58340171
   0.11160433  0.88948555  0.27211358
   0.22200498  0.78120997  0.42014629
   0.11182718  0.89059565  0.48973124
   0.00000133  0.66739947  0.34790232
   0.29945342  0.71709535  0.59126554
   0.44472928  0.88993195  0.27218655
   0.56293328  0.78954436  0.42187860
   0.44095860  0.89569477  0.50209577
   0.33337674  0.66488167  0.34600337
   0.65646905  0.70300745  0.58840208
   0.77871659  0.89034476  0.27214212
   0.88954748  0.77728173  0.41971233
   0.79025642  0.90258933  0.50308081
   0.66509746  0.66544330  0.34492974
   0.30973746  0.52665946  0.62782753
   0.64700857  0.48469340  0.61152856
   0.51646628  0.48950171  0.68253221
   0.48352737  0.51423679  0.60385508
   0.15263256  0.16356767  0.58431940
   0.49553602  0.17857478  0.58077568
   0.81201772  0.51632271  0.58327409
   0.83320623  0.84860750  0.58540880
   0.47087196  0.85503945  0.58725110
   0.17283613  0.52106760  0.58613769
Direct configuration=     9
   0.00317632  0.99634117  0.45622910
   0.22376825  0.11230497  0.30861998
   0.32436623  0.99726096  0.45929593
   0.55465252  0.10884915  0.30910019
   0.67106733  0.00526559  0.46057932
   0.88858847  0.11200932  0.30977342
   0.99506805  0.33096403  0.46241838
   0.22167666  0.44391450  0.31034403
   0.33516000  0.33826472  0.45967752
   0.55482504  0.44586067  0.30957348
   0.67205246  0.32892843  0.45453475
   0.89128186  0.44489024  0.30894951
   0.00628379  0.67646573  0.45837035
   0.22251937  0.77806030  0.30928538
   0.33435188  0.66403048  0.45878192
   0.55633970  0.77799632  0.31090910
   0.66311714  0.66537823  0.46194585
   0.88713195  0.77610673  0.30890931
   0.00057468  0.99346493  0.59019268
   0.11117167  0.22193426  0.27204772
   0.22708897  0.11786545  0.42138468
   0.10709850  0.21550433  0.50349821
   0.00171133  0.99989559  0.34809273
   0.33069581  0.02675412  0.58307836
   0.44422884  0.22189737  0.27203886
   0.55070268  0.10573662  0.42111407
   0.45243030  0.22850918  0.50061807
   0.33203209  0.00092712  0.34842778
   0.64119387  0.97338093  0.58276398
   0.77772219  0.22209624  0.27177859
   0.89141914  0.10887415  0.42243508
   0.77774680  0.22068508  0.49072002
   0.66908180  0.00344320  0.34853956
   0.02328551  0.36299916  0.57939752
   0.11048027  0.55506004  0.27193411
   0.21543690  0.43367208  0.42288010
   0.10391505  0.55902600  0.50403547
   0.99815101  0.33169254  0.34863138
   0.31395315  0.33017637  0.58610412
   0.44337789  0.55449448  0.27172319
   0.55218597  0.43655258  0.42031010
   0.44234980  0.54408077  0.50593936
   0.33367054  0.33487529  0.34780065
   0.66393949  0.30586944  0.58696079
   0.77821825  0.55478170  0.27189802
   0.89379259  0.44751174  0.42018434
   0.78008068  0.54701142  0.49658341
   0.66819492  0.33213101  0.34778840
   0.97971711  0.66505838  0.58340217
   0.11160091  0.88948444  0.27211651
   0.22200393  0.78120286  0.42015043
   0.11181744  0.89059740  0.48972728
   0.00000043  0.66739765  0.34790343
   0.29948477  0.71703896  0.59128911
   0.44472660  0.88992464  0.27218793
   0.56293350  0.78952129  0.42188461
   0.44094507  0.89567459  0.50209975
   0.33337725  0.66488786  0.34601685
   0.65649470  0.70298568  0.58839974
   0.77871491  0.89034050  0.27214297
   0.88952408  0.77727485  0.41972202
   0.79022831  0.90254016  0.50308495
   0.66510063  0.66544663  0.34493629
   0.30975164  0.52670063  0.62777436
   0.64703423  0.48464718  0.61149903
   0.51656109  0.48948259  0.68252794
   0.48351176  0.51425109  0.60386481
   0.15260511  0.16356717  0.58431812
   0.49546945  0.17855912  0.58078740
   0.81214802  0.51631549  0.58326083
   0.83321945  0.84862011  0.58540076
   0.47086187  0.85495036  0.58724277
   0.17276002  0.52110563  0.58614103
Direct configuration=    10
   0.00368927  0.99693127  0.45604080
   0.22356270  0.11224225  0.30833791
   0.32409982  0.99738058  0.45886510
   0.55479717  0.10895378  0.30901050
   0.67203416  0.00617246  0.45999772
   0.88889482  0.11215984  0.30978097
   0.99539190  0.33119218  0.46243141
   0.22161425  0.44376782  0.31033122
   0.33501254  0.33842084  0.46022000
   0.55464926  0.44563269  0.30964089
   0.67208396  0.32862327  0.45407090
   0.89141365  0.44478026  0.30878455
   0.00783508  0.67659434  0.45822410
   0.22234751  0.77807538  0.30928502
   0.33418541  0.66292674  0.45906192
   0.55624255  0.77806554  0.31084515
   0.66299401  0.66572853  0.46200287
   0.88761178  0.77636680  0.30849720
   0.99964865  0.99437128  0.59139586
   0.11126647  0.22199779  0.27195976
   0.22727136  0.11755311  0.42111647
   0.10600343  0.21447719  0.50365416
   0.00210078  0.00005311  0.34794755
   0.33043514  0.02684542  0.58355597
   0.44415937  0.22181067  0.27192106
   0.55017605  0.10541686  0.42103324
   0.45271349  0.22958487  0.50079655
   0.33182158  0.00098572  0.34840665
   0.64335429  0.97339070  0.58318677
   0.77774499  0.22199508  0.27150030
   0.89167662  0.10912046  0.42211111
   0.77795703  0.22039251  0.49069419
   0.66953719  0.00413069  0.34858799
   0.02376203  0.36418530  0.57891577
   0.11019822  0.55493108  0.27179223
   0.21481178  0.43353211  0.42265364
   0.10429109  0.55845738  0.50515776
   0.99797762  0.33149264  0.34877833
   0.31625629  0.32870849  0.58410518
   0.44322209  0.55416020  0.27154191
   0.55242147  0.43557153  0.42012753
   0.44303744  0.54239127  0.50794773
   0.33357153  0.33504823  0.34754932
   0.66663548  0.30232358  0.58720439
   0.77836099  0.55463571  0.27175669
   0.89420660  0.44779097  0.42005080
   0.77996061  0.54639373  0.49579450
   0.66849878  0.33176493  0.34752573
   0.97932850  0.66217532  0.58331178
   0.11186321  0.88950227  0.27192487
   0.22237866  0.78126032  0.41988671
   0.11227326  0.89057023  0.48989081
   0.00031612  0.66751673  0.34774524
   0.29792862  0.71839527  0.59003095
   0.44486652  0.89034234  0.27217197
   0.56276150  0.79020484  0.42165063
   0.44194030  0.89676562  0.50182074
   0.33331109  0.66456694  0.34551068
   0.65558983  0.70485586  0.58842189
   0.77877306  0.89063440  0.27215310
   0.89042924  0.77751794  0.41930565
   0.79167758  0.90443634  0.50329614
   0.66481229  0.66529839  0.34478980
   0.31090870  0.52506526  0.63064520
   0.64604602  0.48551587  0.61270655
   0.51105455  0.49007860  0.68492204
   0.48294080  0.51419016  0.60200245
   0.15440287  0.16413429  0.58448485
   0.49282075  0.17360614  0.58045856
   0.80897749  0.52087564  0.58388849
   0.82947236  0.84638052  0.58542068
   0.46939563  0.85899549  0.58758202
   0.17614271  0.52095804  0.58586085
Direct configuration=    11
   0.00383342  0.99709708  0.45598789
   0.22350495  0.11222462  0.30825865
   0.32402495  0.99741419  0.45874404
   0.55483782  0.10898318  0.30898530
   0.67230585  0.00642729  0.45983429
   0.88898090  0.11220214  0.30978310
   0.99548290  0.33125629  0.46243507
   0.22159672  0.44372660  0.31032762
   0.33497110  0.33846471  0.46037244
   0.55459987  0.44556863  0.30965984
   0.67209281  0.32853752  0.45394056
   0.89145068  0.44474935  0.30873820
   0.00827100  0.67663049  0.45818301
   0.22229922  0.77807961  0.30928491
   0.33413864  0.66261659  0.45914061
   0.55621525  0.77808499  0.31082719
   0.66295941  0.66582697  0.46201889
   0.88774661  0.77643989  0.30838139
   0.99938844  0.99462596  0.59173395
   0.11129311  0.22201565  0.27193504
   0.22732261  0.11746535  0.42104111
   0.10569571  0.21418857  0.50369799
   0.00221021  0.00009737  0.34790676
   0.33036190  0.02687108  0.58369019
   0.44413985  0.22178630  0.27188796
   0.55002807  0.10532701  0.42101052
   0.45279307  0.22988714  0.50084670
   0.33176243  0.00100218  0.34840071
   0.64396138  0.97339345  0.58330557
   0.77775140  0.22196665  0.27142210
   0.89174897  0.10918967  0.42202007
   0.77801611  0.22031029  0.49068693
   0.66966516  0.00432388  0.34860160
   0.02389593  0.36451861  0.57878039
   0.11011896  0.55489485  0.27175236
   0.21463613  0.43349278  0.42259000
   0.10439676  0.55829760  0.50547313
   0.99792890  0.33143647  0.34881962
   0.31690348  0.32829601  0.58354347
   0.44317831  0.55406627  0.27149097
   0.55248764  0.43529585  0.42007622
   0.44323067  0.54191651  0.50851209
   0.33354371  0.33509682  0.34747869
   0.66739306  0.30132718  0.58727285
   0.77840110  0.55459469  0.27171697
   0.89432294  0.44786943  0.42001327